VARIABLES = "CoordinateX", "CoordinateY", "CoordinateZ"
Zone T="FFD_vol0" I=10 J=2 K=17
DATAPACKING=POINT
-1.220000 -1.040059 -0.240000 
-1.050183 -1.410748 -0.240000 
0.440070 -2.356249 -0.240000 
5.242945 -3.220879 -0.240000 
14.345816 -3.181957 -0.240000 
25.613299 -2.200574 -0.240000 
34.707376 -1.363636 -0.240000 
39.496778 -1.120020 -0.240000 
40.975183 -1.089543 -0.240000 
41.140321 -1.088059 -0.240000 
-1.220000 1.040059 -0.240000 
-1.050183 1.822999 -0.240000 
0.440070 3.913678 -0.240000 
5.242945 6.223499 -0.240000 
14.345816 6.319032 -0.240000 
25.613299 3.535834 -0.240000 
34.707376 1.636025 -0.240000 
39.496778 1.172601 -0.240000 
40.975183 1.093375 -0.240000 
41.140321 1.088059 -0.240000 
-1.150038 -1.026703 0.379491 
-0.980793 -1.399597 0.379491 
0.505297 -2.350027 0.379491 
5.295583 -3.217773 0.379491 
14.375767 -3.172264 0.379491 
25.616156 -2.170867 0.379491 
34.688198 -1.316570 0.379491 
39.465914 -1.066038 0.379491 
40.940802 -1.033972 0.379491 
41.105592 -1.032376 0.379491 
-1.150038 1.026703 0.379491 
-0.980793 1.811787 0.379491 
0.505297 3.910539 0.379491 
5.295583 6.238977 0.379491 
14.375767 6.353560 0.379491 
25.616156 3.567835 0.379491 
34.688198 1.663943 0.379491 
39.465914 1.202117 0.379491 
40.940802 1.123765 0.379491 
41.105592 1.118520 0.379491 
0.804616 -0.843432 1.503379 
0.966400 -1.201471 1.503379 
2.380719 -2.112565 1.503379 
6.934684 -2.941522 1.503379 
15.565291 -2.884993 1.503379 
26.249849 -1.893888 1.503379 
34.873702 -1.047492 1.503379 
39.416964 -0.795560 1.503379 
40.821394 -0.761861 1.503379 
40.979179 -0.760116 1.503379 
0.804616 0.848551 1.503379 
0.966400 1.595426 1.503379 
2.380719 3.597135 1.503379 
6.934684 5.839944 1.503379 
15.565291 5.992874 1.503379 
26.249849 3.352167 1.503379 
34.873702 1.539554 1.503379 
39.416964 1.105336 1.503379 
40.821394 1.033011 1.503379 
40.979179 1.028196 1.503379 
4.254540 -0.475807 3.328475 
4.408500 -0.793126 3.328475 
5.712415 -1.599551 3.328475 
9.876131 -2.331138 3.328475 
17.746682 -2.274196 3.328475 
27.484265 -1.378884 3.328475 
35.348652 -0.613031 3.328475 
39.502363 -0.383282 3.328475 
40.796852 -0.351811 3.328475 
40.946970 -0.350146 3.328475 
4.254540 0.522369 3.328475 
4.408500 1.174987 3.328475 
5.712415 2.927565 3.328475 
9.876131 4.909224 3.328475 
17.746682 5.083123 3.328475 
27.484265 2.778478 3.328475 
35.348652 1.182694 3.328475 
39.502363 0.803770 3.328475 
40.796852 0.741725 3.328475 
40.946970 0.737619 3.328475 
8.318247 -0.470496 5.784641 
8.495757 -0.722496 5.784641 
9.763595 -1.363350 5.784641 
13.610361 -1.945459 5.784641 
20.757074 -1.909496 5.784641 
29.557839 -1.216574 5.784641 
36.696978 -0.622420 5.784641 
40.531821 -0.447016 5.784641 
41.788877 -0.423953 5.784641 
41.962076 -0.422773 5.784641 
8.318247 0.582693 5.784641 
8.495757 1.091992 5.784641 
9.763595 2.458112 5.784641 
13.610361 4.003179 5.784641 
20.757074 4.149369 5.784641 
29.557839 2.337579 5.784641 
36.696978 1.064999 5.784641 
40.531821 0.759909 5.784641 
41.788877 0.709791 5.784641 
41.962076 0.706475 5.784641 
12.670347 -0.296720 8.777488 
12.798779 -0.441141 8.777488 
13.703444 -0.810999 8.777488 
16.435142 -1.153388 8.777488 
21.499577 -1.160804 8.777488 
27.729847 -0.814460 8.777488 
32.784231 -0.515707 8.777488 
35.500929 -0.435114 8.777488 
36.392708 -0.427275 8.777488 
36.516102 -0.426996 8.777488 
12.670347 0.496474 8.777488 
12.798779 0.782628 8.777488 
13.703444 1.544188 8.777488 
16.435142 2.388967 8.777488 
21.499577 2.444914 8.777488 
27.729847 1.393106 8.777488 
32.784231 0.638747 8.777488 
35.500929 0.448578 8.777488 
36.392708 0.415668 8.777488 
36.516102 0.413458 8.777488 
16.870698 -0.087981 12.192002 
16.929548 -0.132943 12.192002 
17.326956 -0.250996 12.192002 
18.509084 -0.368513 12.192002 
20.687879 -0.398084 12.192002 
23.361562 -0.333199 12.192002 
25.530041 -0.275420 12.192002 
26.696934 -0.267443 12.192002 
27.081302 -0.269694 12.192002 
27.135061 -0.269956 12.192002 
16.870698 0.394227 12.192002 
16.929548 0.481197 12.192002 
17.326956 0.707817 12.192002 
18.509084 0.944491 12.192002 
20.687879 0.931142 12.192002 
23.361562 0.577881 12.192002 
25.530041 0.317416 12.192002 
26.696934 0.243639 12.192002 
27.081302 0.229263 12.192002 
27.135061 0.228267 12.192002 
19.296114 -0.026205 15.896966 
19.351911 -0.054205 15.896966 
19.720043 -0.132522 15.896966 
20.805733 -0.224670 15.896966 
22.800305 -0.285508 15.896966 
25.245116 -0.305439 15.896966 
27.228996 -0.318572 15.896966 
28.299113 -0.337944 15.896966 
28.653977 -0.346118 15.896966 
28.704601 -0.346787 15.896966 
19.296114 0.453795 15.896966 
19.351911 0.506069 15.896966 
19.720043 0.635908 15.896966 
20.805733 0.751536 15.896966 
22.800305 0.696943 15.896966 
25.245116 0.430655 15.896966 
27.228996 0.228254 15.896966 
28.299113 0.160287 15.896966 
28.653977 0.145025 15.896966 
28.704601 0.143930 15.896966 
21.820731 0.039389 19.750000 
21.873443 0.022001 19.750000 
22.211571 -0.032545 19.750000 
23.198160 -0.113648 19.750000 
25.003620 -0.202331 19.750000 
27.214003 -0.283159 19.750000 
29.008876 -0.346718 19.750000 
29.980080 -0.386557 19.750000 
30.305063 -0.399438 19.750000 
30.352642 -0.400439 19.750000 
21.820731 0.519389 19.750000 
21.873443 0.550069 19.750000 
22.211571 0.619222 19.750000 
23.198160 0.657773 19.750000 
25.003620 0.570304 19.750000 
27.214003 0.346846 19.750000 
29.008876 0.172858 19.750000 
29.980080 0.104675 19.750000 
30.305063 0.087726 19.750000 
30.352642 0.086484 19.750000 
24.348535 0.107072 23.603034 
24.398129 0.095429 23.603034 
24.706171 0.053493 23.603034 
25.593563 -0.022900 23.603034 
27.209896 -0.128396 23.603034 
29.186021 -0.242900 23.603034 
30.792030 -0.334182 23.603034 
31.664362 -0.385473 23.603034 
31.959474 -0.401037 23.603034 
32.004008 -0.402228 23.603034 
24.348535 0.587072 23.603034 
24.398129 0.606141 23.603034 
24.706171 0.642754 23.603034 
25.593563 0.640369 23.603034 
27.209896 0.534290 23.603034 
29.186021 0.331130 23.603034 
30.792030 0.170812 23.603034 
31.664362 0.101806 23.603034 
31.959474 0.083734 23.603034 
32.004008 0.082396 23.603034 
26.781697 0.173832 27.307998 
26.828318 0.164992 27.307998 
27.107579 0.129840 27.307998 
27.900005 0.058276 27.307998 
29.335160 -0.049884 27.307998 
31.086787 -0.173152 27.307998 
32.511827 -0.271735 27.307998 
33.289433 -0.325510 27.307998 
33.555926 -0.341517 27.307998 
33.597543 -0.342736 27.307998 
26.781697 0.653832 27.307998 
26.828318 0.667475 27.307998 
27.107579 0.689632 27.307998 
27.900005 0.671283 27.307998 
29.335160 0.562177 27.307998 
31.086787 0.374960 27.307998 
32.511827 0.226395 27.307998 
33.289433 0.159798 27.307998 
33.555926 0.141991 27.307998 
33.597543 0.140667 27.307998 
29.025957 0.236579 30.722512 
29.069879 0.228859 30.722512 
29.322838 0.197690 30.722512 
30.028346 0.133265 30.722512 
31.297517 0.034852 30.722512 
32.843326 -0.077936 30.722512 
34.102477 -0.168177 30.722512 
34.793274 -0.217236 30.722512 
35.033540 -0.231809 30.722512 
35.072484 -0.232918 30.722512 
29.025957 0.716669 30.722512 
29.069879 0.728550 30.722512 
29.322838 0.747347 30.722512 
30.028346 0.729356 30.722512 
31.297517 0.630213 30.722512 
32.843326 0.461602 30.722512 
34.102477 0.327653 30.722512 
34.793274 0.267384 30.722512 
35.033540 0.251242 30.722512 
35.072484 0.250041 30.722512 
30.992482 0.288212 33.715359 
31.034070 0.280510 33.715359 
31.264158 0.251412 33.715359 
31.893974 0.195337 33.715359 
33.018457 0.114149 33.715359 
34.384724 0.023525 33.715359 
35.499179 -0.048883 33.715359 
36.114278 -0.088882 33.715359 
36.331677 -0.100896 33.715359 
36.368291 -0.101813 33.715359 
30.992482 0.774434 33.715359 
31.034070 0.786954 33.715359 
31.264158 0.809574 33.715359 
31.893974 0.802313 33.715359 
33.018457 0.721026 33.715359 
34.384724 0.571863 33.715359 
35.499179 0.453612 33.715359 
36.114278 0.401860 33.715359 
36.331677 0.388197 33.715359 
36.368291 0.387183 33.715359 
32.589639 0.299484 36.171525 
32.629331 0.290932 36.171525 
32.840741 0.261890 36.171525 
33.408683 0.213008 36.171525 
34.414798 0.150747 36.171525 
35.634098 0.086357 36.171525 
36.630120 0.035153 36.171525 
37.183276 0.005524 36.171525 
37.381962 -0.003648 36.171525 
37.416669 -0.004353 36.171525 
32.589639 0.831064 36.171525 
32.629331 0.846007 36.171525 
32.840741 0.877392 36.171525 
33.408683 0.886995 36.171525 
34.414798 0.825838 36.171525 
35.634098 0.691626 36.171525 
36.630120 0.585795 36.171525 
37.183276 0.542170 36.171525 
37.381962 0.531022 36.171525 
37.416669 0.530201 36.171525 
33.755315 0.280548 37.996621 
33.793601 0.270544 37.996621 
33.991148 0.239662 37.996621 
34.513155 0.195062 37.996621 
35.431371 0.148738 37.996621 
36.541505 0.108353 37.996621 
37.449565 0.076654 37.996621 
37.956716 0.056224 37.996621 
38.141505 0.049497 37.996621 
38.174796 0.048971 37.996621 
33.755315 0.872790 37.996621 
33.793601 0.891266 37.996621 
33.991148 0.934076 37.996621 
34.513155 0.962737 37.996621 
35.431371 0.919374 37.996621 
36.541505 0.791955 37.996621 
37.449565 0.692264 37.996621 
37.956716 0.654427 37.996621 
38.141505 0.645224 37.996621 
38.174796 0.644553 37.996621 
34.476968 0.281587 39.120509 
34.514382 0.270136 39.120509 
34.703373 0.236739 39.120509 
35.197059 0.193580 39.120509 
36.061101 0.157460 39.120509 
37.103975 0.133965 39.120509 
37.957839 0.116071 39.120509 
38.436642 0.101920 39.120509 
38.612867 0.096807 39.120509 
38.645284 0.096399 39.120509 
34.476968 0.890802 39.120509 
34.514382 0.912602 39.120509 
34.703373 0.965658 39.120509 
35.197059 1.010203 39.120509 
36.061101 0.979015 39.120509 
37.103975 0.851718 39.120509 
37.957839 0.752835 39.120509 
38.436642 0.717962 39.120509 
38.612867 0.709886 39.120509 
38.645284 0.709303 39.120509 
34.728134 0.290406 39.660000 
34.765251 0.278335 39.660000 
34.951347 0.243751 39.660000 
35.435456 0.200747 39.660000 
36.281188 0.168086 39.660000 
37.301342 0.150717 39.660000 
38.136898 0.137851 39.660000 
38.606123 0.125933 39.660000 
38.779454 0.121380 39.660000 
38.811577 0.121014 39.660000 
34.728134 0.898234 39.660000 
34.765251 0.921428 39.660000 
34.951347 0.978696 39.660000 
35.435456 1.029577 39.660000 
36.281188 1.002735 39.660000 
37.301342 0.874405 39.660000 
38.136898 0.775007 39.660000 
38.606123 0.740954 39.660000 
38.779454 0.733231 39.660000 
38.811577 0.732676 39.660000 
Zone T="embedding_vol" I=28 J=4 K=49
DATAPACKING=POINT
-1.220000 -1.040059 -0.240000 
-1.142289 -1.167136 -0.240000 
-1.023175 -1.300173 -0.240000 
-0.863872 -1.437571 -0.240000 
-0.429551 -1.719054 -0.240000 
0.150970 -1.998788 -0.240000 
0.867986 -2.263979 -0.240000 
2.194361 -2.611542 -0.240000 
3.870181 -2.884631 -0.240000 
5.959611 -3.070287 -0.240000 
8.502942 -3.157467 -0.240000 
11.444963 -3.142812 -0.240000 
14.706584 -3.024880 -0.240000 
18.195122 -2.809180 -0.240000 
21.763504 -2.529017 -0.240000 
25.251065 -2.224648 -0.240000 
28.510757 -1.932390 -0.240000 
31.450025 -1.672807 -0.240000 
33.989930 -1.462523 -0.240000 
36.075392 -1.312952 -0.240000 
37.746736 -1.214660 -0.240000 
39.068146 -1.153003 -0.240000 
39.781605 -1.125531 -0.240000 
40.358486 -1.106565 -0.240000 
40.789214 -1.094840 -0.240000 
40.946778 -1.091297 -0.240000 
41.064213 -1.089090 -0.240000 
41.140321 -1.088059 -0.240000 
-1.220000 -0.346686 -0.240000 
-1.142289 -0.341354 -0.240000 
-1.023175 -0.334615 -0.240000 
-0.863872 -0.326499 -0.240000 
-0.429551 -0.306264 -0.240000 
0.150970 -0.280900 -0.240000 
0.867986 -0.250660 -0.240000 
2.194361 -0.197978 -0.240000 
3.870181 -0.143384 -0.240000 
5.959611 -0.095374 -0.240000 
8.502942 -0.062236 -0.240000 
11.444963 -0.051422 -0.240000 
14.706584 -0.070172 -0.240000 
18.195122 -0.121256 -0.240000 
21.763504 -0.189538 -0.240000 
25.251065 -0.255410 -0.240000 
28.510757 -0.303242 -0.240000 
31.450025 -0.333311 -0.240000 
33.989930 -0.349874 -0.240000 
36.075392 -0.357098 -0.240000 
37.746736 -0.358787 -0.240000 
39.068146 -0.358658 -0.240000 
39.781605 -0.359157 -0.240000 
40.358486 -0.360163 -0.240000 
40.789214 -0.361339 -0.240000 
40.946778 -0.361885 -0.240000 
41.064213 -0.362349 -0.240000 
41.140321 -0.362686 -0.240000 
-1.220000 0.346686 -0.240000 
-1.142289 0.484427 -0.240000 
-1.023175 0.630944 -0.240000 
-0.863872 0.784574 -0.240000 
-0.429551 1.106527 -0.240000 
0.150970 1.436988 -0.240000 
0.867986 1.762659 -0.240000 
2.194361 2.215586 -0.240000 
3.870181 2.597863 -0.240000 
5.959611 2.879538 -0.240000 
8.502942 3.032995 -0.240000 
11.444963 3.039969 -0.240000 
14.706584 2.884536 -0.240000 
18.195122 2.566669 -0.240000 
21.763504 2.149941 -0.240000 
25.251065 1.713828 -0.240000 
28.510757 1.325907 -0.240000 
31.450025 1.006185 -0.240000 
33.989930 0.762774 -0.240000 
36.075392 0.598756 -0.240000 
37.746736 0.497086 -0.240000 
39.068146 0.435687 -0.240000 
39.781605 0.407217 -0.240000 
40.358486 0.386240 -0.240000 
40.789214 0.372163 -0.240000 
40.946778 0.367526 -0.240000 
41.064213 0.364392 -0.240000 
41.140321 0.362686 -0.240000 
-1.220000 1.040059 -0.240000 
-1.142289 1.310209 -0.240000 
-1.023175 1.596502 -0.240000 
-0.863872 1.895647 -0.240000 
-0.429551 2.519317 -0.240000 
0.150970 3.154876 -0.240000 
0.867986 3.775978 -0.240000 
2.194361 4.629150 -0.240000 
3.870181 5.339111 -0.240000 
5.959611 5.854451 -0.240000 
8.502942 6.128226 -0.240000 
11.444963 6.131360 -0.240000 
14.706584 5.839243 -0.240000 
18.195122 5.254593 -0.240000 
21.763504 4.489421 -0.240000 
25.251065 3.683065 -0.240000 
28.510757 2.955055 -0.240000 
31.450025 2.345680 -0.240000 
33.989930 1.875423 -0.240000 
36.075392 1.554610 -0.240000 
37.746736 1.352959 -0.240000 
39.068146 1.230032 -0.240000 
39.781605 1.173591 -0.240000 
40.358486 1.132642 -0.240000 
40.789214 1.105664 -0.240000 
40.946778 1.096938 -0.240000 
41.064213 1.091133 -0.240000 
41.140321 1.088059 -0.240000 
-1.164199 -1.032794 -0.035524 
-1.086624 -1.159999 -0.035524 
-0.967715 -1.293163 -0.035524 
-0.808684 -1.430685 -0.035524 
-0.375097 -1.712401 -0.035524 
0.204449 -1.992343 -0.035524 
0.920266 -2.257705 -0.035524 
2.244434 -2.605436 -0.035524 
3.917483 -2.878537 -0.035524 
6.003483 -3.063994 -0.035524 
8.542664 -3.150714 -0.035524 
11.479911 -3.135288 -0.035524 
14.736268 -3.016231 -0.035524 
18.219202 -2.799039 -0.035524 
21.781871 -2.517145 -0.035524 
25.263852 -2.210967 -0.035524 
28.518328 -1.916970 -0.035524 
31.452888 -1.655811 -0.035524 
33.988725 -1.444196 -0.035524 
36.070847 -1.293597 -0.035524 
37.739519 -1.194543 -0.035524 
39.058824 -1.132331 -0.035524 
39.771153 -1.104576 -0.035524 
40.347128 -1.085394 -0.035524 
40.777186 -1.073517 -0.035524 
40.934508 -1.069922 -0.035524 
41.051766 -1.067679 -0.035524 
41.127765 -1.066629 -0.035524 
-1.164199 -0.344232 -0.035524 
-1.086624 -0.338986 -0.035524 
-0.967715 -0.332322 -0.035524 
-0.808684 -0.324270 -0.035524 
-0.375097 -0.304122 -0.035524 
0.204449 -0.278785 -0.035524 
0.920266 -0.248500 -0.035524 
2.244434 -0.195600 -0.035524 
3.917483 -0.140580 -0.035524 
6.003483 -0.091909 -0.035524 
8.542664 -0.057861 -0.035524 
11.479911 -0.045926 -0.035524 
14.736268 -0.063401 -0.035524 
18.219202 -0.113111 -0.035524 
21.781871 -0.179989 -0.035524 
25.263852 -0.244495 -0.035524 
28.518328 -0.291062 -0.035524 
31.452888 -0.320005 -0.035524 
33.988725 -0.335609 -0.035524 
36.070847 -0.342061 -0.035524 
37.739519 -0.343148 -0.035524 
39.058824 -0.342558 -0.035524 
39.771153 -0.342817 -0.035524 
40.347128 -0.343634 -0.035524 
40.777186 -0.344675 -0.035524 
40.934508 -0.345176 -0.035524 
41.051766 -0.345606 -0.035524 
41.127765 -0.345926 -0.035524 
-1.164199 0.344331 -0.035524 
-1.086624 0.482027 -0.035524 
-0.967715 0.628518 -0.035524 
-0.808684 0.782144 -0.035524 
-0.375097 1.104156 -0.035524 
0.204449 1.434773 -0.035524 
0.920266 1.760706 -0.035524 
2.244434 2.214236 -0.035524 
3.917483 2.597377 -0.035524 
6.003483 2.880175 -0.035524 
8.542664 3.034992 -0.035524 
11.479911 3.043437 -0.035524 
14.736268 2.889428 -0.035524 
18.219202 2.572817 -0.035524 
21.781871 2.157168 -0.035524 
25.263852 1.721977 -0.035524 
28.518328 1.334846 -0.035524 
31.452888 1.015802 -0.035524 
33.988725 0.772979 -0.035524 
36.070847 0.609475 -0.035524 
37.739519 0.508247 -0.035524 
39.058824 0.447214 -0.035524 
39.771153 0.418943 -0.035524 
40.347128 0.398126 -0.035524 
40.777186 0.384166 -0.035524 
40.934508 0.379571 -0.035524 
41.051766 0.376466 -0.035524 
41.127765 0.374777 -0.035524 
-1.164199 1.032893 -0.035524 
-1.086624 1.303039 -0.035524 
-0.967715 1.589359 -0.035524 
-0.808684 1.888559 -0.035524 
-0.375097 2.512435 -0.035524 
0.204449 3.148331 -0.035524 
0.920266 3.769911 -0.035524 
2.244434 4.624072 -0.035524 
3.917483 5.335334 -0.035524 
6.003483 5.852260 -0.035524 
8.542664 6.127846 -0.035524 
11.479911 6.132799 -0.035524 
14.736268 5.842258 -0.035524 
18.219202 5.258744 -0.035524 
21.781871 4.494325 -0.035524 
25.263852 3.688450 -0.035524 
28.518328 2.960754 -0.035524 
31.452888 2.351608 -0.035524 
33.988725 1.881566 -0.035524 
36.070847 1.561011 -0.035524 
37.739519 1.359642 -0.035524 
39.058824 1.236987 -0.035524 
39.771153 1.180703 -0.035524 
40.347128 1.139887 -0.035524 
40.777186 1.113008 -0.035524 
40.934508 1.104318 -0.035524 
41.051766 1.098539 -0.035524 
41.127765 1.095480 -0.035524 
-1.047944 -1.020247 0.165355 
-0.970604 -1.147355 0.165355 
-0.852059 -1.280409 0.165355 
-0.693518 -1.417810 0.165355 
-0.261273 -1.699259 0.165355 
0.316473 -1.978910 0.165355 
1.030061 -2.243973 0.165355 
2.350102 -2.591253 0.165355 
4.017937 -2.863882 0.165355 
6.097443 -3.048814 0.165355 
8.628733 -3.134923 0.165355 
11.556868 -3.118760 0.165355 
14.803144 -2.998794 0.165355 
18.275319 -2.780501 0.165355 
21.826998 -2.497382 0.165355 
25.298245 -2.189943 0.165355 
28.542688 -1.894730 0.165355 
31.468203 -1.632460 0.165355 
33.996230 -1.419892 0.165355 
36.071949 -1.268533 0.165355 
37.735505 -1.168895 0.165355 
39.050784 -1.106240 0.165355 
39.760954 -1.078254 0.165355 
40.335196 -1.058890 0.165355 
40.763976 -1.046882 0.165355 
40.920838 -1.043242 0.165355 
41.037760 -1.040967 0.165355 
41.113550 -1.039899 0.165355 
-1.047944 -0.339945 0.165355 
-0.970604 -0.334802 0.165355 
-0.852059 -0.328233 0.165355 
-0.693518 -0.320266 0.165355 
-0.261273 -0.300256 0.165355 
0.316473 -0.275004 0.165355 
1.030061 -0.244741 0.165355 
2.350102 -0.191734 0.165355 
4.017937 -0.136398 0.165355 
6.097443 -0.087158 0.165355 
8.628733 -0.052256 0.165355 
11.556868 -0.039214 0.165355 
14.803144 -0.055371 0.165355 
18.275319 -0.103605 0.165355 
21.826998 -0.168947 0.165355 
25.298245 -0.231963 0.165355 
28.542688 -0.277177 0.165355 
31.468203 -0.304939 0.165355 
33.996230 -0.319556 0.165355 
36.071949 -0.325226 0.165355 
37.735505 -0.325710 0.165355 
39.050784 -0.324661 0.165355 
39.760954 -0.324679 0.165355 
40.335196 -0.325307 0.165355 
40.763976 -0.326212 0.165355 
40.920838 -0.326665 0.165355 
41.037760 -0.327062 0.165355 
41.113550 -0.327363 0.165355 
-1.047944 0.340358 0.165355 
-0.970604 0.477751 0.165355 
-0.852059 0.623943 0.165355 
-0.693518 0.777278 0.165355 
-0.261273 1.098747 0.165355 
0.316473 1.428903 0.165355 
1.030061 1.754490 0.165355 
2.350102 2.207786 0.165355 
4.017937 2.591086 0.165355 
6.097443 2.874499 0.165355 
8.628733 3.030411 0.165355 
11.556868 3.040332 0.165355 
14.803144 2.888052 0.165355 
18.275319 2.573291 0.165355 
21.826998 2.159489 0.165355 
25.298245 1.726017 0.165355 
28.542688 1.340376 0.165355 
31.468203 1.022582 0.165355 
33.996230 0.780780 0.165355 
36.071949 0.618082 0.165355 
37.735505 0.517476 0.165355 
39.050784 0.456917 0.165355 
39.760954 0.428896 0.165355 
40.335196 0.408276 0.165355 
40.763976 0.394458 0.165355 
40.920838 0.389912 0.165355 
41.037760 0.386842 0.165355 
41.113550 0.385173 0.165355 
-1.047944 1.020660 0.165355 
-0.970604 1.290304 0.165355 
-0.852059 1.576119 0.165355 
-0.693518 1.874821 0.165355 
-0.261273 2.497749 0.165355 
0.316473 3.132809 0.165355 
1.030061 3.753722 0.165355 
2.350102 4.607305 0.165355 
4.017937 5.318570 0.165355 
6.097443 5.836155 0.165355 
8.628733 6.113078 0.165355 
11.556868 6.119879 0.165355 
14.803144 5.831476 0.165355 
18.275319 5.250187 0.165355 
21.826998 4.487924 0.165355 
25.298245 3.683997 0.165355 
28.542688 2.957929 0.165355 
31.468203 2.350104 0.165355 
33.996230 1.881116 0.165355 
36.071949 1.561389 0.165355 
37.735505 1.360661 0.165355 
39.050784 1.238495 0.165355 
39.760954 1.182470 0.165355 
40.335196 1.141859 0.165355 
40.763976 1.115128 0.165355 
40.920838 1.106490 0.165355 
41.037760 1.100747 0.165355 
41.113550 1.097709 0.165355 
-0.877992 -1.002937 0.363300 
-0.800971 -1.129739 0.363300 
-0.682929 -1.262465 0.363300 
-0.525069 -1.399522 0.363300 
-0.094700 -1.680244 0.363300 
0.480520 -1.959149 0.363300 
1.190974 -2.223480 0.363300 
2.505194 -2.569744 0.363300 
4.165657 -2.841459 0.363300 
6.235961 -3.025570 0.363300 
8.756051 -3.110936 0.363300 
11.671237 -3.094072 0.363300 
14.903170 -2.973407 0.363300 
18.360021 -2.754386 0.363300 
21.896038 -2.470520 0.363300 
25.351986 -2.162335 0.363300 
28.582133 -1.866403 0.363300 
31.494766 -1.603463 0.363300 
34.011673 -1.390298 0.363300 
36.078280 -1.238436 0.363300 
37.734560 -1.138383 0.363300 
39.044119 -1.075393 0.363300 
39.751223 -1.047224 0.363300 
40.323006 -1.027712 0.363300 
40.749973 -1.015596 0.363300 
40.906184 -1.011917 0.363300 
41.022630 -1.009614 0.363300 
41.098126 -1.008530 0.363300 
-0.877992 -0.333990 0.363300 
-0.800971 -0.328964 0.363300 
-0.682929 -0.322506 0.363300 
-0.525069 -0.314644 0.363300 
-0.094700 -0.294818 0.363300 
0.480520 -0.269706 0.363300 
1.190974 -0.239529 0.363300 
2.505194 -0.186518 0.363300 
4.165657 -0.130970 0.363300 
6.235961 -0.081251 0.363300 
8.756051 -0.045557 0.363300 
11.671237 -0.031430 0.363300 
14.903170 -0.046241 0.363300 
18.360021 -0.092920 0.363300 
21.896038 -0.156619 0.363300 
25.351986 -0.218043 0.363300 
28.582133 -0.261836 0.363300 
31.494766 -0.288380 0.363300 
34.011673 -0.301993 0.363300 
36.078280 -0.306878 0.363300 
37.734560 -0.306764 0.363300 
39.044119 -0.305263 0.363300 
39.751223 -0.305043 0.363300 
40.323006 -0.305482 0.363300 
40.749973 -0.306251 0.363300 
40.906184 -0.306656 0.363300 
41.022630 -0.307020 0.363300 
41.098126 -0.307301 0.363300 
-0.877992 0.334957 0.363300 
-0.800971 0.471811 0.363300 
-0.682929 0.617453 0.363300 
-0.525069 0.770233 0.363300 
-0.094700 1.090608 0.363300 
0.480520 1.419737 0.363300 
1.190974 1.744423 0.363300 
2.505194 2.196709 0.363300 
4.165657 2.579518 0.363300 
6.235961 2.863068 0.363300 
8.756051 3.019821 0.363300 
11.671237 3.031213 0.363300 
14.903170 2.880926 0.363300 
18.360021 2.568546 0.363300 
21.896038 2.157282 0.363300 
25.351986 1.726249 0.363300 
28.582133 1.342731 0.363300 
31.494766 1.026704 0.363300 
34.011673 0.786311 0.363300 
36.078280 0.624679 0.363300 
37.734560 0.524855 0.363300 
39.044119 0.464866 0.363300 
39.751223 0.437138 0.363300 
40.323006 0.416747 0.363300 
40.749973 0.403093 0.363300 
40.906184 0.398604 0.363300 
41.022630 0.395574 0.363300 
41.098126 0.393927 0.363300 
-0.877992 1.003903 0.363300 
-0.800971 1.272586 0.363300 
-0.682929 1.557412 0.363300 
-0.525069 1.855110 0.363300 
-0.094700 2.476034 0.363300 
0.480520 3.109180 0.363300 
1.190974 3.728374 0.363300 
2.505194 4.579935 0.363300 
4.165657 5.290007 0.363300 
6.235961 5.807387 0.363300 
8.756051 6.085200 0.363300 
11.671237 6.093856 0.363300 
14.903170 5.808093 0.363300 
18.360021 5.230012 0.363300 
21.896038 4.471183 0.363300 
25.351986 3.670540 0.363300 
28.582133 2.947298 0.363300 
31.494766 2.341787 0.363300 
34.011673 1.874616 0.363300 
36.078280 1.556237 0.363300 
37.734560 1.356474 0.363300 
39.044119 1.234995 0.363300 
39.751223 1.179319 0.363300 
40.323006 1.138977 0.363300 
40.749973 1.112438 0.363300 
40.906184 1.103865 0.363300 
41.022630 1.098168 0.363300 
41.098126 1.095156 0.363300 
-0.404026 -0.956091 0.753048 
-0.327844 -1.081734 0.753048 
-0.211141 -1.213233 0.753048 
-0.055104 -1.349006 0.753048 
0.370214 -1.627064 0.753048 
0.938605 -1.903274 0.753048 
1.640565 -2.165004 0.753048 
2.938971 -2.507749 0.753048 
4.579357 -2.776476 0.753048 
6.624561 -2.958176 0.753048 
9.114052 -3.041731 0.753048 
11.993823 -3.023600 0.753048 
15.186496 -2.902135 0.753048 
18.601373 -2.682694 0.753048 
22.094472 -2.398659 0.753048 
25.508492 -2.090418 0.753048 
28.699471 -1.794419 0.753048 
31.576817 -1.531359 0.753048 
34.063281 -1.317995 0.753048 
36.104960 -1.165839 0.753048 
37.741347 -1.065435 0.753048 
39.035285 -1.002082 0.753048 
39.734025 -0.973688 0.753048 
40.299108 -0.953979 0.753048 
40.721144 -0.941707 0.753048 
40.875587 -0.937970 0.753048 
40.990747 -0.935625 0.753048 
41.065452 -0.934515 0.753048 
-0.404026 -0.317732 0.753048 
-0.327844 -0.312974 0.753048 
-0.211141 -0.306782 0.753048 
-0.055104 -0.299179 0.753048 
0.370214 -0.279841 0.753048 
0.938605 -0.255156 0.753048 
1.640565 -0.225317 0.753048 
2.938971 -0.172586 0.753048 
4.579357 -0.116909 0.753048 
6.624561 -0.066494 0.753048 
9.114052 -0.029417 0.753048 
11.993823 -0.013222 0.753048 
15.186496 -0.025321 0.753048 
18.601373 -0.068736 0.753048 
22.094472 -0.128926 0.753048 
25.508492 -0.186961 0.753048 
28.699471 -0.227785 0.753048 
31.576817 -0.251841 0.753048 
34.063281 -0.263448 0.753048 
36.104960 -0.266790 0.753048 
37.741347 -0.265519 0.753048 
39.035285 -0.263151 0.753048 
39.734025 -0.262471 0.753048 
40.299108 -0.262544 0.753048 
40.721144 -0.263046 0.753048 
40.875587 -0.263356 0.753048 
40.990747 -0.263653 0.753048 
41.065452 -0.263896 0.753048 
-0.404026 0.320627 0.753048 
-0.327844 0.455786 0.753048 
-0.211141 0.599669 0.753048 
-0.055104 0.750648 0.753048 
0.370214 1.067381 0.753048 
0.938605 1.392963 0.753048 
1.640565 1.714369 0.753048 
2.938971 2.162577 0.753048 
4.579357 2.542659 0.753048 
6.624561 2.825187 0.753048 
9.114052 2.982897 0.753048 
11.993823 2.997156 0.753048 
15.186496 2.851493 0.753048 
18.601373 2.545222 0.753048 
22.094472 2.140806 0.753048 
25.508492 1.716495 0.753048 
28.699471 1.338850 0.753048 
31.576817 1.027678 0.753048 
34.063281 0.791099 0.753048 
36.104960 0.632258 0.753048 
37.741347 0.534397 0.753048 
39.035285 0.475780 0.753048 
39.734025 0.448745 0.753048 
40.299108 0.428891 0.753048 
40.721144 0.415616 0.753048 
40.875587 0.411258 0.753048 
40.990747 0.408318 0.753048 
41.065452 0.406722 0.753048 
-0.404026 0.958986 0.753048 
-0.327844 1.224546 0.753048 
-0.211141 1.506119 0.753048 
-0.055104 1.800474 0.753048 
0.370214 2.414604 0.753048 
0.938605 3.041082 0.753048 
1.640565 3.654055 0.753048 
2.938971 4.497740 0.753048 
4.579357 5.202226 0.753048 
6.624561 5.716869 0.753048 
9.114052 5.995211 0.753048 
11.993823 6.007534 0.753048 
15.186496 5.728307 0.753048 
18.601373 5.159180 0.753048 
22.094472 4.410539 0.753048 
25.508492 3.619952 0.753048 
28.699471 2.905484 0.753048 
31.576817 2.307197 0.753048 
34.063281 1.845647 0.753048 
36.104960 1.531307 0.753048 
37.741347 1.334312 0.753048 
39.035285 1.214711 0.753048 
39.734025 1.159962 0.753048 
40.299108 1.120326 0.753048 
40.721144 1.094278 0.753048 
40.875587 1.085872 0.753048 
40.990747 1.080290 0.753048 
41.065452 1.077341 0.753048 
0.203638 -0.896392 1.139039 
0.278807 -1.020270 1.139039 
0.393868 -1.149905 1.139039 
0.547648 -1.283742 1.139039 
0.966683 -1.557797 1.139039 
1.526544 -1.829985 1.139039 
2.217860 -2.087859 1.139039 
3.496402 -2.425450 1.139039 
5.111509 -2.689928 1.139039 
7.125052 -2.868396 1.139039 
9.575897 -2.949822 1.139039 
12.410897 -2.930631 1.139039 
15.553901 -2.809110 1.139039 
18.915642 -2.590505 1.139039 
22.354396 -2.307893 1.139039 
25.715323 -2.001307 1.139039 
28.856717 -1.706883 1.139039 
31.689410 -1.445164 1.139039 
34.137369 -1.232792 1.139039 
36.147543 -1.081207 1.139039 
37.758819 -0.981036 1.139039 
39.033066 -0.917700 1.139039 
39.721281 -0.889257 1.139039 
40.277948 -0.869477 1.139039 
40.693810 -0.857131 1.139039 
40.846047 -0.853362 1.139039 
40.959612 -0.850990 1.139039 
41.033348 -0.849862 1.139039 
0.203638 -0.296768 1.139039 
0.278807 -0.292313 1.139039 
0.393868 -0.286430 1.139039 
0.547648 -0.279139 1.139039 
0.966683 -0.260420 1.139039 
1.526544 -0.236324 1.139039 
2.217860 -0.207019 1.139039 
3.496402 -0.154903 1.139039 
5.111509 -0.099457 1.139039 
7.125052 -0.048692 1.139039 
9.575897 -0.010519 1.139039 
12.410897 0.007543 1.139039 
15.553901 -0.001920 1.139039 
18.915642 -0.042009 1.139039 
22.354396 -0.098559 1.139039 
25.715323 -0.153087 1.139039 
28.856717 -0.190906 1.139039 
31.689410 -0.212511 1.139039 
34.137369 -0.222190 1.139039 
36.147543 -0.224085 1.139039 
37.758819 -0.221750 1.139039 
39.033066 -0.218592 1.139039 
39.721281 -0.217492 1.139039 
40.277948 -0.217225 1.139039 
40.693810 -0.217476 1.139039 
40.846047 -0.217698 1.139039 
40.959612 -0.217932 1.139039 
41.033348 -0.218137 1.139039 
0.203638 0.302856 1.139039 
0.278807 0.435643 1.139039 
0.393868 0.577045 1.139039 
0.547648 0.725463 1.139039 
0.966683 1.036956 1.139039 
1.526544 1.357336 1.139039 
2.217860 1.673820 1.139039 
3.496402 2.115643 1.139039 
5.111509 2.491014 1.139039 
7.125052 2.771012 1.139039 
9.575897 2.928783 1.139039 
12.410897 2.945718 1.139039 
15.553901 2.805271 1.139039 
18.915642 2.506488 1.139039 
22.354396 2.110775 1.139039 
25.715323 1.695133 1.139039 
28.856717 1.325070 1.139039 
31.689410 1.020141 1.139039 
34.137369 0.788412 1.139039 
36.147543 0.633037 1.139039 
37.758819 0.537536 1.139039 
39.033066 0.480516 1.139039 
39.721281 0.454274 1.139039 
40.277948 0.435028 1.139039 
40.693810 0.422179 1.139039 
40.846047 0.417966 1.139039 
40.959612 0.415127 1.139039 
41.033348 0.413587 1.139039 
0.203638 0.902481 1.139039 
0.278807 1.163600 1.139039 
0.393868 1.440520 1.139039 
0.547648 1.730066 1.139039 
0.966683 2.334332 1.139039 
1.526544 2.950997 1.139039 
2.217860 3.554660 1.139039 
3.496402 4.386190 1.139039 
5.111509 5.081484 1.139039 
7.125052 5.590716 1.139039 
9.575897 5.868086 1.139039 
12.410897 5.883893 1.139039 
15.553901 5.612462 1.139039 
18.915642 5.054984 1.139039 
22.354396 4.320109 1.139039 
25.715323 3.543353 1.139039 
28.856717 2.841047 1.139039 
31.689410 2.252794 1.139039 
34.137369 1.799014 1.139039 
36.147543 1.490160 1.139039 