VARIABLES = "CoordinateX", "CoordinateY", "CoordinateZ"
Zone T="wing_surface" I=3078
DATAPACKING=POINT
0.000105 0.000069 0.000000 
0.015524 0.275317 0.000000 
0.061759 0.549968 -0.000000 
0.138736 0.823390 -0.000000 
0.246338 1.094938 0.000000 
0.384400 1.363957 0.000000 
0.552707 1.629771 0.000000 
0.751000 1.891680 -0.000000 
0.978975 2.148960 0.000000 
1.236278 2.400854 0.000000 
1.522515 2.646575 0.000000 
1.837242 2.885303 -0.000000 
2.179975 3.116184 0.000000 
2.550185 3.338330 0.000000 
2.947302 3.550826 0.000000 
3.370713 3.752733 -0.000000 
3.819765 3.943092 0.000000 
4.293767 4.120937 -0.000000 
4.791986 4.285303 0.000000 
5.313655 4.435238 -0.000000 
5.857970 4.569820 -0.000000 
6.424090 4.688173 -0.000000 
7.011144 4.789481 0.000000 
7.618226 4.873008 -0.000000 
8.244400 4.938119 0.000000 
8.888701 4.984295 0.000000 
9.550134 5.011152 -0.000000 
10.227680 5.018456 0.000000 
10.920295 5.006139 -0.000000 
11.626910 4.974311 -0.000000 
12.346437 4.923265 0.000000 
13.077764 4.853488 -0.000000 
13.819765 4.765656 -0.000000 
14.571296 4.660636 -0.000000 
15.331198 4.539475 -0.000000 
16.098299 4.403393 0.000000 
16.871416 4.253763 0.000000 
17.649357 4.092094 0.000000 
18.430923 3.920009 -0.000000 
19.214909 3.739218 0.000000 
20.000105 3.551492 0.000000 
20.785302 3.358633 -0.000000 
21.569287 3.162444 0.000000 
22.350853 2.964700 -0.000000 
23.128795 2.767120 -0.000000 
23.901912 2.571339 -0.000000 
24.669012 2.378884 0.000000 
25.428914 2.191153 -0.000000 
26.180445 2.009394 -0.000000 
26.922446 1.834696 -0.000000 
27.653774 1.667975 -0.000000 
28.373300 1.509971 -0.000000 
29.079915 1.361245 -0.000000 
29.772530 1.222181 -0.000000 
30.450076 1.092997 0.000000 
31.111510 0.973751 0.000000 
31.755810 0.864356 0.000000 
32.381984 0.764596 -0.000000 
32.989066 0.674144 0.000000 
33.576120 0.592579 0.000000 
34.142241 0.519407 -0.000000 
34.686555 0.454080 0.000000 
35.208225 0.396016 -0.000000 
35.706444 0.344616 -0.000000 
36.180445 0.299278 0.000000 
36.629497 0.259415 -0.000000 
37.052908 0.224465 0.000000 
37.450025 0.193900 0.000000 
37.820236 0.167237 0.000000 
38.162969 0.144038 -0.000000 
38.477696 0.123916 0.000000 
38.763932 0.106536 0.000000 
39.021236 0.091612 -0.000000 
39.249210 0.078906 -0.000000 
39.447504 0.068223 -0.000000 
39.615811 0.059408 0.000000 
39.753872 0.052339 0.000000 
39.861474 0.046926 0.000000 
39.938452 0.043102 0.000000 
39.984686 0.040825 0.000000 
40.000105 0.040069 0.000000 
0.035739 0.000381 0.300047 
0.050896 0.276351 0.300047 
0.096821 0.551756 0.300047 
0.173443 0.825970 0.300047 
0.280644 1.098354 0.300047 
0.418260 1.368256 0.300047 
0.586078 1.635005 0.300047 
0.783840 1.897904 0.300047 
1.011241 2.156231 0.300047 
1.267931 2.409232 0.300047 
1.553515 2.656119 0.300047 
1.867551 2.896071 0.300047 
2.209557 3.128233 0.300047 
2.579006 3.351714 0.300047 
2.975329 3.565594 0.300047 
3.397914 3.768929 0.300047 
3.846112 3.960753 0.300047 
4.319230 4.140091 0.300047 
4.816542 4.305969 0.300047 
5.337279 4.457425 0.300047 
5.880641 4.593528 0.300047 
6.445789 4.713386 0.300047 
7.031854 4.816174 0.300047 
7.637931 4.901145 0.300047 
8.263086 4.967649 0.300047 
8.906357 5.015156 0.300047 
9.566751 5.043270 0.300047 
10.243251 5.051748 0.300047 
10.934812 5.040512 0.300047 
11.640370 5.009663 0.300047 
12.358836 4.959489 0.300047 
13.089101 4.890470 0.300047 
13.830039 4.803280 0.300047 
14.580507 4.698783 0.300047 
15.339347 4.578028 0.300047 
16.105388 4.442235 0.300047 
16.877449 4.292783 0.300047 
17.654336 4.131187 0.300047 
18.434852 3.959075 0.300047 
19.217791 3.778168 0.300047 
20.001945 3.590245 0.300047 
20.786104 3.397120 0.300047 
21.569056 3.200606 0.300047 
22.349595 3.002491 0.300047 
23.126514 2.804505 0.300047 
23.898614 2.608296 0.300047 
24.664705 2.415402 0.300047 
25.423603 2.227230 0.300047 
26.174139 2.045041 0.300047 
26.915153 1.869930 0.300047 
27.645503 1.702824 0.300047 
28.364062 1.544466 0.300047 
29.069722 1.395424 0.300047 
29.761395 1.256087 0.300047 
30.438013 1.126673 0.300047 
31.098535 1.007244 0.300047 
31.741942 0.897711 0.300047 
32.367241 0.797858 0.300047 
32.973470 0.707355 0.300047 
33.559694 0.625780 0.300047 
34.125009 0.552634 0.300047 
34.668545 0.487366 0.300047 
35.189464 0.429390 0.300047 
35.686963 0.378101 0.300047 
36.160276 0.332892 0.300047 
36.608674 0.293174 0.300047 
37.031465 0.258377 0.300047 
37.427999 0.227972 0.300047 
37.797664 0.201470 0.300047 
38.139891 0.178430 0.300047 
38.454153 0.158463 0.300047 
38.739965 0.141230 0.300047 
38.996886 0.126442 0.300047 
39.224522 0.113861 0.300047 
39.422520 0.103288 0.300047 
39.590577 0.094568 0.300047 
39.728432 0.087579 0.300047 
39.835874 0.082228 0.300047 
39.912737 0.078450 0.300047 
39.958902 0.076199 0.300047 
39.974298 0.075452 0.300047 
1.246576 0.003313 1.191071 
1.260693 0.271381 1.191071 
1.304590 0.538979 1.191071 
1.378199 0.805516 1.191071 
1.481407 1.070389 1.191071 
1.614056 1.332979 1.191071 
1.775943 1.592649 1.191071 
1.966818 1.848734 1.191071 
2.186388 2.100545 1.191071 
2.434315 2.347358 1.191071 
2.710218 2.588415 1.191071 
3.013673 2.822925 1.191071 
3.344213 3.050056 1.191071 
3.701330 3.268944 1.191071 
4.084476 3.478693 1.191071 
4.493061 3.678377 1.191071 
4.926457 3.867049 1.191071 
5.383997 4.043751 1.191071 
5.864979 4.207519 1.191071 
6.368663 4.357403 1.191071 
6.894273 4.492475 1.191071 
7.441002 4.611849 1.191071 
8.008008 4.714697 1.191071 
8.594419 4.800267 1.191071 
9.199333 4.867903 1.191071 
9.821817 4.917062 1.191071 
10.460913 4.947332 1.191071 
11.115636 4.958451 1.191071 
11.784977 4.950319 1.191071 
12.467904 4.923009 1.191071 
13.163362 4.876781 1.191071 
13.870279 4.812084 1.191071 
14.587563 4.729556 1.191071 
15.314105 4.630026 1.191071 
16.048784 4.514504 1.191071 
16.790463 4.384173 1.191071 
17.537995 4.240369 1.191071 
18.290224 4.084568 1.191071 
19.045986 3.918360 1.191071 
19.804112 3.743424 1.191071 
20.563429 3.561502 1.191071 
21.322760 3.374370 1.191071 
22.080932 3.183809 1.191071 
22.836770 2.991573 1.191071 
23.589106 2.799362 1.191071 
24.336775 2.608797 1.191071 
25.078620 2.421392 1.191071 
25.813496 2.238534 1.191071 
26.540265 2.061466 1.191071 
27.257805 1.891271 1.191071 
27.965007 1.728860 1.191071 
28.660781 1.574973 1.191071 
29.344051 1.430171 1.191071 
30.013764 1.294840 1.191071 
30.668887 1.169200 1.191071 
31.308410 1.053314 1.191071 
31.931349 0.947098 1.191071 
32.536743 0.850343 1.191071 
33.123660 0.762726 1.191071 
33.691198 0.683831 1.191071 
34.238483 0.613172 1.191071 
34.764672 0.550205 1.191071 
35.268957 0.494354 1.191071 
35.750562 0.445024 1.191071 
36.208746 0.401619 1.191071 
36.642805 0.363556 1.191071 
37.052071 0.330276 1.191071 
37.435914 0.301255 1.191071 
37.793746 0.276013 1.191071 
38.125014 0.254115 1.191071 
38.429210 0.235176 1.191071 
38.705866 0.218862 1.191071 
38.954555 0.204890 1.191071 
39.174896 0.193021 1.191071 
39.366549 0.183063 1.191071 
39.529218 0.174859 1.191071 
39.662655 0.168291 1.191071 
39.766652 0.163266 1.191071 
39.841051 0.159721 1.191071 
39.885736 0.157610 1.191071 
39.900639 0.156909 1.191071 
4.258705 0.015870 2.645998 
4.271260 0.257331 2.645998 
4.311192 0.498439 2.645998 
4.378440 0.738674 2.645998 
4.472900 0.977510 2.645998 
4.594428 1.214403 2.645998 
4.742837 1.448793 2.645998 
4.917900 1.680097 2.645998 
5.119347 1.907704 2.645998 
5.346870 2.130976 2.645998 
5.600120 2.349239 2.645998 
5.878707 2.561788 2.645998 
6.182203 2.767881 2.645998 
6.510144 2.966743 2.645998 
6.862026 3.157568 2.645998 
7.237308 3.339520 2.645998 
7.635416 3.511740 2.645998 
8.055737 3.673358 2.645998 
8.497627 3.823493 2.645998 
8.960407 3.961273 2.645998 
9.443368 4.085845 2.645998 
9.945766 4.196388 2.645998 
10.466831 4.292130 2.645998 
11.005762 4.372368 2.645998 
11.561729 4.436481 2.645998 
12.133878 4.483947 2.645998 
12.721328 4.514366 2.645998 
13.323174 4.527467 2.645998 
13.938489 4.523129 2.645998 
14.566324 4.501389 2.645998 
15.205709 4.462452 2.645998 
15.855658 4.406695 2.645998 
16.515167 4.334672 2.645998 
17.183214 4.247112 2.645998 
17.858768 4.144908 2.645998 
18.540780 4.029116 2.645998 
19.228197 3.900936 2.645998 
19.919951 3.761696 2.645998 
20.614971 3.612831 2.645998 
21.312178 3.455863 2.645998 
22.010492 3.292375 2.645998 
22.708829 3.123983 2.645998 
23.406106 2.952309 2.645998 
24.101242 2.778957 2.645998 
24.793158 2.605483 2.645998 
25.480782 2.433372 2.645998 
26.163049 2.264013 2.645998 
26.838901 2.098683 2.645998 
27.507292 1.938526 2.645998 
28.167188 1.784541 2.645998 
28.817568 1.637573 2.645998 
29.457429 1.498306 2.645998 
30.085780 1.367264 2.645998 
30.701654 1.244809 2.645998 
31.304100 1.131151 2.645998 
31.892190 1.026354 2.645998 
32.465018 0.930351 2.645998 
33.021702 0.842952 2.645998 
33.561386 0.763869 2.645998 
34.083240 0.692726 2.645998 
34.586463 0.629078 2.645998 
35.070281 0.572431 2.645998 
35.533950 0.522257 2.645998 
35.976760 0.478014 2.645998 
36.398030 0.439153 2.645998 
36.797113 0.405141 2.645998 
37.173396 0.375466 2.645998 
37.526303 0.349645 2.645998 
37.855291 0.327238 2.645998 
38.159854 0.307843 2.645998 
38.439526 0.291108 2.645998 
38.693876 0.276725 2.645998 
38.922514 0.264431 2.645998 
39.125087 0.254009 2.645998 
39.301286 0.245278 2.645998 
39.450838 0.238098 2.645998 
39.573514 0.232355 2.645998 
39.669124 0.227966 2.645998 
39.737523 0.224872 2.645998 
39.778605 0.223031 2.645998 
39.792305 0.222419 2.645998 
7.456665 0.040702 4.620622 
7.468187 0.243853 4.620622 
7.504518 0.446711 4.620622 
7.565602 0.648843 4.620622 
7.651346 0.849809 4.620622 
7.761617 1.049158 4.620622 
7.896246 1.246424 4.620622 
8.055028 1.441123 4.620622 
8.237717 1.632750 4.620622 
8.444033 1.820778 4.620622 
8.673660 2.004649 4.620622 
8.926244 2.183783 4.620622 
9.201397 2.357565 4.620622 
9.498697 2.525356 4.620622 
9.817687 2.686488 4.620622 
10.157878 2.840266 4.620622 
10.518746 2.985976 4.620622 
10.899738 3.122890 4.620622 
11.300268 3.250271 4.620622 
11.719721 3.367384 4.620622 
12.157453 3.473506 4.620622 
12.612792 3.567940 4.620622 
13.085037 3.650026 4.620622 
13.573462 3.719155 4.620622 
14.077316 3.774786 4.620622 
14.595824 3.816461 4.620622 
15.128187 3.843815 4.620622 
15.673586 3.856596 4.620622 
16.231181 3.854674 4.620622 
16.800110 3.838052 4.620622 
17.379498 3.806872 4.620622 
17.968449 3.761425 4.620622 
18.566053 3.702151 4.620622 
19.171387 3.629639 4.620622 
19.783515 3.544621 4.620622 
20.401489 3.447967 4.620622 
21.024353 3.340675 4.620622 
21.651143 3.223853 4.620622 
22.280888 3.098706 4.620622 
22.912611 2.966514 4.620622 
23.545334 2.828614 4.620622 
24.178076 2.686375 4.620622 
24.809856 2.541177 4.620622 
25.439696 2.394386 4.620622 
26.066618 2.247330 4.620622 
26.689653 2.101282 4.620622 
27.307834 1.957435 4.620622 
27.920205 1.816889 4.620622 
28.525819 1.680630 4.620622 
29.123738 1.549526 4.620622 
29.713039 1.424310 4.620622 
30.292810 1.305583 4.620622 
30.862157 1.193804 4.620622 
31.420202 1.089297 4.620622 
31.966082 0.992255 4.620622 
32.498958 0.902746 4.620622 
33.018009 0.820721 4.620622 
33.522434 0.746030 4.620622 
34.011459 0.678435 4.620622 
34.484331 0.617621 4.620622 
34.940322 0.563215 4.620622 
35.378732 0.514797 4.620622 
35.798887 0.471922 4.620622 
36.200141 0.434125 4.620622 
36.581879 0.400940 4.620622 
36.943514 0.371910 4.620622 
37.284489 0.346597 4.620622 
37.604283 0.324588 4.620622 
37.902402 0.305504 4.620622 
38.178390 0.289000 4.620622 
38.431822 0.274771 4.620622 
38.662308 0.262554 4.620622 
38.869495 0.252121 4.620622 
39.053064 0.243284 4.620622 
39.212731 0.235888 4.620622 
39.348253 0.229809 4.620622 
39.459420 0.224951 4.620622 
39.546060 0.221240 4.620622 
39.608042 0.218624 4.620622 
39.645270 0.217068 4.620622 
39.657685 0.216552 4.620622 
11.378432 0.074823 7.054945 
11.389250 0.226944 7.054945 
11.421730 0.378757 7.054945 
11.475822 0.529926 7.054945 
11.551443 0.680110 7.054945 
11.648476 0.828965 7.054945 
11.766771 0.976137 7.054945 
11.906146 1.121261 7.054945 
12.066387 1.263962 7.054945 
12.247245 1.403848 7.054945 
12.448443 1.540512 7.054945 
12.669669 1.673530 7.054945 
12.910584 1.802459 7.054945 
13.170815 1.926836 7.054945 
13.449961 2.046179 7.054945 
13.747592 2.159991 7.054945 
14.063249 2.267756 7.054945 
14.396446 2.368951 7.054945 
14.746668 2.463041 7.054945 
15.113376 2.549494 7.054945 
15.496004 2.627784 7.054945 
15.893963 2.697400 7.054945 
16.306638 2.757853 7.054945 
16.733394 2.808693 7.054945 
17.173572 2.849514 7.054945 
17.626494 2.879966 7.054945 
18.091462 2.899768 7.054945 
18.567759 2.908719 7.054945 
19.054649 2.906705 7.054945 
19.551383 2.893707 7.054945 
20.057195 2.869814 7.054945 
20.571304 2.835219 7.054945 
21.092918 2.790229 7.054945 
21.621232 2.735261 7.054945 
22.155432 2.670844 7.054945 
22.694694 2.597607 7.054945 
23.238187 2.516279 7.054945 
23.785072 2.427677 7.054945 
24.334506 2.332689 7.054945 
24.885641 2.232269 7.054945 
25.437629 2.127412 7.054945 
25.989616 2.019144 7.054945 
26.540753 1.908501 7.054945 
27.090189 1.796516 7.054945 
27.637078 1.684193 7.054945 
28.180574 1.572500 7.054945 
28.719842 1.462348 7.054945 
29.254048 1.354577 7.054945 
29.782369 1.249948 7.054945 
30.303991 1.149131 7.054945 
30.818108 1.052698 7.054945 
31.323929 0.961117 7.054945 
31.820674 0.874755 7.054945 
32.307575 0.793874 7.054945 
32.783883 0.718636 7.054945 
33.248863 0.649106 7.054945 
33.701799 0.585265 7.054945 
34.141991 0.527010 7.054945 
34.568761 0.474173 7.054945 
34.981451 0.426525 7.054945 
35.379426 0.383792 7.054945 
35.762070 0.345665 7.054945 
36.128794 0.311809 7.054945 
36.479034 0.281879 7.054945 
36.812248 0.255522 7.054945 
37.127924 0.232396 7.054945 
37.425573 0.212168 7.054945 
37.704739 0.194525 7.054945 
37.964989 0.179179 7.054945 
38.205923 0.165869 7.054945 
38.427170 0.154361 7.054945 
38.628388 0.144454 7.054945 
38.809267 0.135973 7.054945 
38.969528 0.128774 7.054945 
39.108924 0.122738 7.054945 
39.227240 0.117770 7.054945 
39.324294 0.113794 7.054945 
39.399936 0.110754 7.054945 
39.447432 0.108461 7.044642 
39.470513 0.106973 7.030093 
39.478189 0.106479 7.025238 
14.852403 0.117162 9.875000 
14.859620 0.189363 9.875000 
14.879957 0.261284 9.875000 
14.913382 0.332752 9.875000 
14.959843 0.403594 9.875000 
15.019268 0.473635 9.875000 
15.091564 0.542699 9.875000 
15.176619 0.610608 9.875000 
15.274302 0.677182 9.875000 
15.384461 0.742236 9.875000 
15.506926 0.805582 9.875000 
15.641506 0.867025 9.875000 
15.787994 0.926367 9.875000 
15.946162 0.983400 9.875000 
16.115766 1.037914 9.875000 
16.296542 1.089688 9.875000 
16.488211 1.138498 9.875000 
16.690476 1.184114 9.875000 
16.903023 1.226303 9.875000 
17.125523 1.264832 9.875000 
17.357632 1.299468 9.875000 
17.598990 1.329986 9.875000 
17.849223 1.356170 9.875000 
18.107944 1.377816 9.875000 
18.374753 1.394741 9.875000 
18.649238 1.406786 9.875000 
18.930973 1.413822 9.875000 
19.219524 1.415753 9.875000 
19.514445 1.412521 9.875000 
19.815282 1.404115 9.875000 
20.121571 1.390568 9.875000 
20.432839 1.371964 9.875000 
20.748609 1.348438 9.875000 
21.068394 1.320176 9.875000 
21.391704 1.287417 9.875000 
21.718041 1.250450 9.875000 
22.046905 1.209607 9.875000 
22.377793 1.165268 9.875000 
22.710196 1.117844 9.875000 
23.043605 1.067782 9.875000 
23.377511 1.015548 9.875000 
23.711401 0.961627 9.875000 
24.044765 0.906509 9.875000 
24.377093 0.850686 9.875000 
24.707875 0.794638 9.875000 
25.036604 0.738830 9.875000 
25.362778 0.683702 9.875000 
25.685895 0.629662 9.875000 
26.005462 0.577082 9.875000 
26.320986 0.526290 9.875000 
26.631983 0.477572 9.875000 
26.937975 0.431163 9.875000 
27.238492 0.387248 9.875000 
27.533071 0.345966 9.875000 
27.821257 0.307406 9.875000 
28.102606 0.271611 9.875000 
28.376684 0.238582 9.875000 
28.643068 0.208281 9.875000 
28.901345 0.180637 9.875000 
29.151116 0.155550 9.875000 
29.391995 0.132896 9.875000 
29.623608 0.112534 9.875000 
29.845597 0.094310 9.875000 
30.057618 0.078062 9.875000 
30.259341 0.063628 9.875000 
30.450455 0.050845 9.875000 
30.630663 0.039558 9.875000 
30.799686 0.029618 9.875000 
30.957262 0.020888 9.875000 
31.103146 0.013243 9.875000 
31.237113 0.006574 9.875000 
31.358954 0.000783 9.875000 
31.468482 -0.004213 9.875000 
31.565527 -0.008485 9.875000 
31.649938 -0.012088 9.875000 
31.721585 -0.015070 9.875000 
31.780357 -0.017466 9.875000 
31.826163 -0.019304 9.875000 
31.858932 -0.020604 9.875000 
31.878614 -0.021378 9.875000 
31.885178 -0.021636 9.875000 
17.996958 0.166498 12.995102 
18.001038 0.193947 12.995102 
18.012011 0.221168 12.995102 
18.029859 0.248089 12.995102 
18.054554 0.274634 12.995102 
18.086056 0.300732 12.995102 
18.124318 0.326311 12.995102 
18.169278 0.351300 12.995102 
18.220866 0.375629 12.995102 
18.279004 0.399228 12.995102 
18.343599 0.422028 12.995102 
18.414552 0.443958 12.995102 
18.491753 0.464949 12.995102 
18.575081 0.484930 12.995102 
18.664407 0.503829 12.995102 
18.759593 0.521572 12.995102 
18.860490 0.538086 12.995102 
18.966942 0.553294 12.995102 
19.078784 0.567120 12.995102 
19.195841 0.579488 12.995102 
19.317932 0.590321 12.995102 
19.444867 0.599544 12.995102 
19.576450 0.607086 12.995102 
19.712476 0.612878 12.995102 
19.852734 0.616861 12.995102 
19.997007 0.618980 12.995102 
20.145072 0.619191 12.995102 
20.296699 0.617462 12.995102 
20.451654 0.613775 12.995102 
20.609698 0.608125 12.995102 
20.770587 0.600526 12.995102 
20.934074 0.591009 12.995102 
21.099908 0.579623 12.995102 
21.267833 0.566435 12.995102 
21.437593 0.551535 12.995102 
21.608928 0.535028 12.995102 
21.781575 0.517038 12.995102 
21.955272 0.497705 12.995102 
22.129753 0.477184 12.995102 
22.304752 0.455640 12.995102 
22.480002 0.433251 12.995102 
22.655237 0.410200 12.995102 
22.830191 0.386674 12.995102 
23.004596 0.362859 12.995102 
23.178188 0.338943 12.995102 
23.350701 0.315103 12.995102 
23.521873 0.291512 12.995102 
23.691444 0.268329 12.995102 
23.859153 0.245701 12.995102 
24.024745 0.223760 12.995102 
24.187965 0.202619 12.995102 
24.348565 0.182377 12.995102 
24.506297 0.163110 12.995102 
24.660919 0.144879 12.995102 
24.812192 0.127724 12.995102 
24.959884 0.111669 12.995102 
25.103766 0.096722 12.995102 
25.243616 0.082875 12.995102 
25.379216 0.070106 12.995102 
25.510358 0.058383 12.995102 
25.636836 0.047665 12.995102 
25.758456 0.037902 12.995102 
25.875026 0.029040 12.995102 
25.986367 0.021021 12.995102 
26.092305 0.013787 12.995102 
26.192675 0.007278 12.995102 
26.287320 0.001437 12.995102 
26.376094 -0.003790 12.995102 
26.458857 -0.008453 12.995102 
26.535482 -0.012600 12.995102 
26.605848 -0.016269 12.995102 
26.669847 -0.019499 12.995102 
26.727379 -0.022320 12.995102 
26.778355 -0.024757 12.995102 
26.822694 -0.026833 12.995102 
26.860330 -0.028564 12.995102 
26.891202 -0.029964 12.995102 
26.915264 -0.031043 12.995102 
26.932477 -0.031809 12.995102 
26.942816 -0.032267 12.995102 
26.946264 -0.032419 12.995102 
20.158497 0.221291 16.320448 
20.162372 0.238705 16.320448 
20.172580 0.255813 16.320448 
20.189103 0.272564 16.320448 
20.211916 0.288903 16.320448 
20.240983 0.304783 16.320448 
20.276257 0.320152 16.320448 
20.317684 0.334964 16.320448 
20.365198 0.349174 16.320448 
20.418725 0.362738 16.320448 
20.478182 0.375614 16.320448 
20.543477 0.387761 16.320448 
20.614508 0.399140 16.320448 
20.691164 0.409712 16.320448 
20.773327 0.419439 16.320448 
20.860868 0.428283 16.320448 
20.953653 0.436206 16.320448 
21.051536 0.443171 16.320448 
21.154366 0.449140 16.320448 
21.261983 0.454075 16.320448 
21.374220 0.457938 16.320448 
21.490903 0.460693 16.320448 
21.611850 0.462304 16.320448 
21.736875 0.462738 16.320448 
21.865782 0.461965 16.320448 
21.998371 0.459959 16.320448 
22.134439 0.456700 16.320448 
22.273773 0.452173 16.320448 
22.416159 0.446371 16.320448 
22.561377 0.439298 16.320448 
22.709203 0.430964 16.320448 
22.859409 0.421391 16.320448 
23.011764 0.410613 16.320448 
23.166035 0.398675 16.320448 
23.321986 0.385632 16.320448 
23.479377 0.371555 16.320448 
23.637969 0.356520 16.320448 
23.797519 0.340618 16.320448 
23.957784 0.323948 16.320448 
24.118522 0.306616 16.320448 
24.279486 0.288736 16.320448 
24.440434 0.270427 16.320448 
24.601119 0.251809 16.320448 
24.761299 0.233004 16.320448 
24.920730 0.214134 16.320448 
25.079170 0.195318 16.320448 
25.236378 0.176668 16.320448 
25.392114 0.158293 16.320448 
25.546141 0.140291 16.320448 
25.698225 0.122752 16.320448 
25.848133 0.105757 16.320448 
25.995635 0.089373 16.320448 
26.140506 0.073658 16.320448 
26.282522 0.058656 16.320448 
26.421466 0.044402 16.320448 
26.557123 0.030917 16.320448 
26.689283 0.018214 16.320448 
26.817742 0.006294 16.320448 
26.942301 -0.004849 16.320448 
27.062766 -0.015229 16.320448 
27.178951 -0.024868 16.320448 
27.290675 -0.033791 16.320448 
27.397763 -0.042026 16.320448 
27.500049 -0.049608 16.320448 
27.597373 -0.056567 16.320448 
27.689583 -0.062938 16.320448 
27.776536 -0.068754 16.320448 
27.858095 -0.074047 16.320448 
27.934134 -0.078845 16.320448 
28.004533 -0.083175 16.320448 
28.069184 -0.087061 16.320448 
28.127985 -0.090525 16.320448 
28.180844 -0.093584 16.320448 
28.227680 -0.096254 16.320448 
28.268419 -0.098547 16.320448 
28.302999 -0.100472 16.320448 
28.331365 -0.102038 16.320448 
28.353473 -0.103251 16.320448 
28.369289 -0.104115 16.320448 
28.378788 -0.104632 16.320448 
28.381956 -0.104804 16.320448 
22.390726 0.279737 19.750000 
22.394256 0.290691 19.750000 
22.403541 0.301272 19.750000 
22.418565 0.311444 19.750000 
22.439304 0.321171 19.750000 
22.465726 0.330417 19.750000 
22.497787 0.339150 19.750000 
22.535437 0.347340 19.750000 
22.578619 0.354958 19.750000 
22.627263 0.361978 19.750000 
22.681295 0.368375 19.750000 
22.740630 0.374128 19.750000 
22.805176 0.379214 19.750000 
22.874834 0.383616 19.750000 
22.949494 0.387314 19.750000 
23.029041 0.390293 19.750000 
23.113352 0.392536 19.750000 
23.202296 0.394027 19.750000 
23.295736 0.394751 19.750000 
23.393525 0.394692 19.750000 
23.495513 0.393836 19.750000 
23.601542 0.392169 19.750000 
23.711446 0.389678 19.750000 
23.825057 0.386348 19.750000 
23.942196 0.382171 19.750000 
24.062684 0.377138 19.750000 
24.186333 0.371242 19.750000 
24.312952 0.364482 19.750000 
24.442346 0.356860 19.750000 
24.574314 0.348382 19.750000 
24.708653 0.339062 19.750000 
24.845157 0.328918 19.750000 
24.983615 0.317975 19.750000 
25.123814 0.306266 19.750000 
25.265540 0.293830 19.750000 
25.408577 0.280714 19.750000 
25.552704 0.266972 19.750000 
25.697702 0.252662 19.750000 
25.843351 0.237852 19.750000 
25.989429 0.222612 19.750000 
26.135712 0.207018 19.750000 
26.281980 0.191149 19.750000 
26.428009 0.175085 19.750000 
26.573578 0.158910 19.750000 
26.718466 0.142704 19.750000 
26.862452 0.126548 19.750000 
27.005318 0.110520 19.750000 
27.146847 0.094694 19.750000 
27.286822 0.079139 19.750000 
27.425030 0.063918 19.750000 
27.561260 0.049089 19.750000 
27.695303 0.034703 19.750000 
27.826955 0.020802 19.750000 
27.956012 0.007423 19.750000 
28.082277 -0.005406 19.750000 
28.205555 -0.017665 19.750000 
28.325655 -0.029337 19.750000 
28.442391 -0.040416 19.750000 
28.555584 -0.050899 19.750000 
28.665056 -0.060789 19.750000 
28.770639 -0.070092 19.750000 
28.872167 -0.078819 19.750000 
28.969484 -0.086984 19.750000 
29.062436 -0.094601 19.750000 
29.150879 -0.101687 19.750000 
29.234675 -0.108259 19.750000 
29.313694 -0.114333 19.750000 
29.387812 -0.119925 19.750000 
29.456913 -0.125051 19.750000 
29.520889 -0.129724 19.750000 
29.579641 -0.133957 19.750000 
29.633077 -0.137761 19.750000 
29.681114 -0.141146 19.750000 
29.723677 -0.144117 19.750000 
29.760700 -0.146683 19.750000 
29.792125 -0.148847 19.750000 
29.817903 -0.150613 19.750000 
29.837994 -0.151984 19.750000 
29.852367 -0.152963 19.750000 
29.861000 -0.153549 19.750000 
29.863879 -0.153745 19.750000 
24.625474 0.339834 23.179552 
24.628621 0.347074 23.179552 
24.636944 0.353902 23.179552 
24.650431 0.360289 23.179552 
24.669059 0.366211 23.179552 
24.692798 0.371643 23.179552 
24.721611 0.376563 23.179552 
24.755452 0.380952 23.179552 
24.794268 0.384789 23.179552 
24.837999 0.388061 23.179552 
24.886576 0.390751 23.179552 
24.939923 0.392848 23.179552 
24.997959 0.394342 23.179552 
25.060593 0.395224 23.179552 
25.127729 0.395486 23.179552 
25.199261 0.395122 23.179552 
25.275080 0.394128 23.179552 
25.355068 0.392497 23.179552 
25.439101 0.390228 23.179552 
25.527049 0.387315 23.179552 
25.618776 0.383755 23.179552 
25.714141 0.379547 23.179552 
25.812994 0.374687 23.179552 
25.915183 0.369175 23.179552 
26.020551 0.363009 23.179552 
26.128933 0.356191 23.179552 
26.240162 0.348722 23.179552 
26.354066 0.340608 23.179552 
26.470469 0.331855 23.179552 
26.589192 0.322474 23.179552 
26.710050 0.312478 23.179552 
26.832859 0.301886 23.179552 
26.957428 0.290718 23.179552 
27.083567 0.279001 23.179552 
27.211082 0.266766 23.179552 
27.339777 0.254049 23.179552 
27.469457 0.240889 23.179552 
27.599922 0.227331 23.179552 
27.730973 0.213424 23.179552 
27.862411 0.199219 23.179552 
27.994036 0.184772 23.179552 
28.125647 0.170140 23.179552 
28.257044 0.155382 23.179552 
28.388027 0.140557 23.179552 
28.518397 0.125727 23.179552 
28.647955 0.110950 23.179552 
28.776505 0.096283 23.179552 
28.903851 0.081782 23.179552 
29.029798 0.067499 23.179552 
29.154155 0.053483 23.179552 
29.276731 0.039778 23.179552 
29.397338 0.026423 23.179552 
29.515793 0.013455 23.179552 
29.631912 0.000903 23.179552 
29.745517 -0.011207 23.179552 
29.856434 -0.022855 23.179552 
29.964491 -0.034026 23.179552 
30.069521 -0.044708 23.179552 
30.171362 -0.054894 23.179552 
30.269855 -0.064580 23.179552 
30.364847 -0.073766 23.179552 
30.456191 -0.082453 23.179552 
30.543745 -0.090646 23.179552 
30.627372 -0.098350 23.179552 
30.706942 -0.105572 23.179552 
30.782331 -0.112318 23.179552 
30.853422 -0.118597 23.179552 
30.920103 -0.124416 23.179552 
30.982270 -0.129781 23.179552 
31.039827 -0.134699 23.179552 
31.092684 -0.139176 23.179552 
31.140758 -0.143216 23.179552 
31.183975 -0.146824 23.179552 
31.222267 -0.150002 23.179552 
31.255575 -0.152753 23.179552 
31.283846 -0.155079 23.179552 
31.307037 -0.156981 23.179552 
31.325112 -0.158459 23.179552 
31.338043 -0.159515 23.179552 
31.345810 -0.160148 23.179552 
31.348400 -0.160359 23.179552 
26.794401 0.399467 26.504898 
26.797189 0.404780 26.504898 
26.804596 0.409672 26.504898 
26.816609 0.414124 26.504898 
26.833208 0.418116 26.504898 
26.854367 0.421630 26.504898 
26.880053 0.424649 26.504898 
26.910224 0.427159 26.504898 
26.944833 0.429148 26.504898 
26.983827 0.430603 26.504898 
27.027144 0.431517 26.504898 
27.074718 0.431882 26.504898 
27.126475 0.431692 26.504898 
27.182334 0.430943 26.504898 
27.242209 0.429633 26.504898 
27.306007 0.427761 26.504898 
27.373630 0.425325 26.504898 
27.444973 0.422327 26.504898 
27.519925 0.418766 26.504898 
27.598372 0.414644 26.504898 
27.680191 0.409963 26.504898 
27.765256 0.404726 26.504898 
27.853435 0.398933 26.504898 
27.944592 0.392590 26.504898 
28.038585 0.385698 26.504898 
28.135270 0.378264 26.504898 
28.234497 0.370292 26.504898 
28.336111 0.361791 26.504898 
28.439957 0.352769 26.504898 
28.545874 0.343238 26.504898 
28.653698 0.333211 26.504898 
28.763264 0.322706 26.504898 
28.874402 0.311742 26.504898 
28.986942 0.300342 26.504898 
29.100711 0.288532 26.504898 
29.215535 0.276342 26.504898 
29.331238 0.263806 26.504898 
29.447642 0.250959 26.504898 
29.564571 0.237842 26.504898 
29.681846 0.224496 26.504898 
29.799287 0.210966 26.504898 
29.916717 0.197297 26.504898 
30.033956 0.183539 26.504898 
30.150825 0.169738 26.504898 
30.267148 0.155943 26.504898 
30.382746 0.142202 26.504898 
30.497445 0.128562 26.504898 
30.611069 0.115068 26.504898 
30.723444 0.101762 26.504898 
30.834400 0.088686 26.504898 
30.943766 0.075876 26.504898 
31.051376 0.063366 26.504898 
31.157063 0.051186 26.504898 
31.260667 0.039364 26.504898 
31.362028 0.027922 26.504898 
31.460989 0.016879 26.504898 
31.557397 0.006252 26.504898 
31.651105 -0.003949 26.504898 
31.741966 -0.013713 26.504898 
31.829840 -0.023034 26.504898 
31.914591 -0.031909 26.504898 
31.996086 -0.040334 26.504898 
32.074200 -0.048310 26.504898 
32.148809 -0.055838 26.504898 
32.219799 -0.062920 26.504898 
32.287059 -0.069559 26.504898 
32.350483 -0.075757 26.504898 
32.409973 -0.081517 26.504898 
32.465437 -0.086843 26.504898 
32.516787 -0.091737 26.504898 
32.563943 -0.096202 26.504898 
32.606833 -0.100238 26.504898 
32.645389 -0.103849 26.504898 
32.679551 -0.107034 26.504898 
32.709266 -0.109794 26.504898 
32.734489 -0.112130 26.504898 
32.755179 -0.114041 26.504898 
32.771305 -0.115528 26.504898 
32.782841 -0.116591 26.504898 
32.789770 -0.117228 26.504898 
32.792081 -0.117441 26.504898 
28.830999 0.456430 29.625000 
28.833480 0.460921 29.625000 
28.840058 0.465018 29.625000 
28.850721 0.468703 29.625000 
28.865454 0.471960 29.625000 
28.884231 0.474774 29.625000 
28.907023 0.477130 29.625000 
28.933794 0.479018 29.625000 
28.964502 0.480425 29.625000 
28.999099 0.481344 29.625000 
29.037532 0.481766 29.625000 
29.079740 0.481688 29.625000 
29.125658 0.481104 29.625000 
29.175216 0.480012 29.625000 
29.228335 0.478411 29.625000 
29.284935 0.476300 29.625000 
29.344927 0.473681 29.625000 
29.408220 0.470553 29.625000 
29.474714 0.466920 29.625000 
29.544307 0.462783 29.625000 
29.616892 0.458145 29.625000 
29.692356 0.453009 29.625000 
29.770583 0.447379 29.625000 
29.851451 0.441258 29.625000 
29.934835 0.434650 29.625000 
30.020606 0.427561 29.625000 
30.108632 0.419996 29.625000 
30.198776 0.411964 29.625000 
30.290899 0.403473 29.625000 
30.384858 0.394534 29.625000 
30.480510 0.385160 29.625000 
30.577706 0.375366 29.625000 
30.676297 0.365170 29.625000 
30.776131 0.354592 29.625000 
30.877055 0.343657 29.625000 
30.978915 0.332391 29.625000 
31.081553 0.320822 29.625000 
31.184814 0.308984 29.625000 
31.288539 0.296911 29.625000 
31.392571 0.284639 29.625000 
31.496751 0.272209 29.625000 