VARIABLES = "CoordinateX", "CoordinateY", "CoordinateZ"
Zone T="wing_surface" I=3078
DATAPACKING=POINT
0.000000 0.000000 0.000000 
0.015419 0.275248 0.000000 
0.061653 0.549899 -0.000000 
0.138631 0.823321 -0.000000 
0.246233 1.094869 0.000000 
0.384294 1.363888 0.000000 
0.552602 1.629702 0.000000 
0.750895 1.891611 -0.000000 
0.978870 2.148891 0.000000 
1.236173 2.400785 0.000000 
1.522409 2.646507 0.000000 
1.837137 2.885234 -0.000000 
2.179870 3.116115 0.000000 
2.550080 3.338261 0.000000 
2.947197 3.550757 0.000000 
3.370608 3.752664 -0.000000 
3.819660 3.943023 0.000000 
4.293661 4.120868 -0.000000 
4.791881 4.285234 0.000000 
5.313550 4.435169 -0.000000 
5.857864 4.569751 -0.000000 
6.423985 4.688104 -0.000000 
7.011039 4.789412 0.000000 
7.618121 4.872939 -0.000000 
8.244295 4.938050 0.000000 
8.888595 4.984226 0.000000 
9.550029 5.011083 -0.000000 
10.227575 5.018387 0.000000 
10.920190 5.006070 -0.000000 
11.626805 4.974242 -0.000000 
12.346331 4.923196 0.000000 
13.077659 4.853419 -0.000000 
13.819660 4.765587 -0.000000 
14.571191 4.660567 -0.000000 
15.331093 4.539406 -0.000000 
16.098194 4.403324 0.000000 
16.871311 4.253694 0.000000 
17.649252 4.092025 0.000000 
18.430818 3.919940 -0.000000 
19.214804 3.739149 0.000000 
20.000000 3.551424 0.000000 
20.785196 3.358564 -0.000000 
21.569182 3.162375 0.000000 
22.350748 2.964631 -0.000000 
23.128689 2.767051 -0.000000 
23.901806 2.571271 -0.000000 
24.668907 2.378815 0.000000 
25.428809 2.191084 -0.000000 
26.180340 2.009325 -0.000000 
26.922341 1.834627 -0.000000 
27.653669 1.667906 -0.000000 
28.373195 1.509902 -0.000000 
29.079810 1.361176 -0.000000 
29.772425 1.222112 -0.000000 
30.449971 1.092928 0.000000 
31.111405 0.973682 0.000000 
31.755705 0.864287 0.000000 
32.381879 0.764527 -0.000000 
32.988961 0.674075 0.000000 
33.576015 0.592510 0.000000 
34.142136 0.519338 -0.000000 
34.686450 0.454011 0.000000 
35.208119 0.395947 -0.000000 
35.706339 0.344547 -0.000000 
36.180340 0.299209 0.000000 
36.629392 0.259346 -0.000000 
37.052803 0.224396 0.000000 
37.449920 0.193831 0.000000 
37.820130 0.167168 0.000000 
38.162863 0.143969 -0.000000 
38.477591 0.123847 0.000000 
38.763827 0.106467 0.000000 
39.021130 0.091543 -0.000000 
39.249105 0.078837 -0.000000 
39.447398 0.068154 -0.000000 
39.615706 0.059339 0.000000 
39.753767 0.052270 0.000000 
39.861369 0.046857 0.000000 
39.938347 0.043033 0.000000 
39.984581 0.040756 0.000000 
40.000000 0.040000 0.000000 
0.035158 -0.000000 0.300047 
0.050315 0.275970 0.300047 
0.096240 0.551376 0.300047 
0.172862 0.825589 0.300047 
0.280063 1.097973 0.300047 
0.417679 1.367876 0.300047 
0.585497 1.634624 0.300047 
0.783259 1.897524 0.300047 
1.010660 2.155850 0.300047 
1.267350 2.408851 0.300047 
1.552934 2.655738 0.300047 
1.866970 2.895691 0.300047 
2.208976 3.127852 0.300047 
2.578425 3.351333 0.300047 
2.974748 3.565214 0.300047 
3.397333 3.768548 0.300047 
3.845531 3.960372 0.300047 
4.318649 4.139710 0.300047 
4.815961 4.305588 0.300047 
5.336698 4.457045 0.300047 
5.880060 4.593147 0.300047 
6.445208 4.713006 0.300047 
7.031273 4.815794 0.300047 
7.637350 4.900764 0.300047 
8.262505 4.967268 0.300047 
8.905776 5.014775 0.300047 
9.566170 5.042889 0.300047 
10.242670 5.051367 0.300047 
10.934231 5.040132 0.300047 
11.639789 5.009283 0.300047 
12.358255 4.959109 0.300047 
13.088520 4.890090 0.300047 
13.829458 4.802899 0.300047 
14.579926 4.698402 0.300047 
15.338766 4.577647 0.300047 
16.104807 4.441855 0.300047 
16.876868 4.292403 0.300047 
17.653755 4.130806 0.300047 
18.434271 3.958694 0.300047 
19.217210 3.777787 0.300047 
20.001364 3.589865 0.300047 
20.785523 3.396739 0.300047 
21.568475 3.200225 0.300047 
22.349014 3.002110 0.300047 
23.125933 2.804125 0.300047 
23.898033 2.607916 0.300047 
24.664124 2.415021 0.300047 
25.423022 2.226849 0.300047 
26.173558 2.044660 0.300047 
26.914572 1.869550 0.300047 
27.644922 1.702443 0.300047 
28.363481 1.544086 0.300047 
29.069141 1.395043 0.300047 
29.760814 1.255706 0.300047 
30.437432 1.126293 0.300047 
31.097954 1.006863 0.300047 
31.741361 0.897330 0.300047 
32.366660 0.797477 0.300047 
32.972889 0.706975 0.300047 
33.559113 0.625399 0.300047 
34.124428 0.552253 0.300047 
34.667964 0.486986 0.300047 
35.188883 0.429009 0.300047 
35.686382 0.377720 0.300047 
36.159695 0.332512 0.300047 
36.608093 0.292793 0.300047 
37.030884 0.257997 0.300047 
37.427418 0.227591 0.300047 
37.797083 0.201089 0.300047 
38.139310 0.178050 0.300047 
38.453572 0.158082 0.300047 
38.739384 0.140849 0.300047 
38.996305 0.126062 0.300047 
39.223941 0.113480 0.300047 
39.421939 0.102908 0.300047 
39.589996 0.094187 0.300047 
39.727851 0.087198 0.300047 
39.835293 0.081847 0.300047 
39.912156 0.078069 0.300047 
39.958321 0.075819 0.300047 
39.973717 0.075072 0.300047 
1.241519 -0.000000 1.191071 
1.255636 0.268067 1.191071 
1.299533 0.535666 1.191071 
1.373142 0.802203 1.191071 
1.476350 1.067076 1.191071 
1.608999 1.329666 1.191071 
1.770886 1.589335 1.191071 
1.961761 1.845421 1.191071 
2.181331 2.097232 1.191071 
2.429258 2.344045 1.191071 
2.705161 2.585102 1.191071 
3.008616 2.819611 1.191071 
3.339156 3.046743 1.191071 
3.696273 3.265631 1.191071 
4.079419 3.475380 1.191071 
4.488004 3.675064 1.191071 
4.921400 3.863736 1.191071 
5.378940 4.040438 1.191071 
5.859922 4.204206 1.191071 
6.363606 4.354090 1.191071 
6.889216 4.489162 1.191071 
7.435945 4.608536 1.191071 
8.002951 4.711384 1.191071 
8.589363 4.796954 1.191071 
9.194276 4.864590 1.191071 
9.816760 4.913749 1.191071 
10.455856 4.944019 1.191071 
11.110579 4.955138 1.191071 
11.779920 4.947006 1.191071 
12.462847 4.919696 1.191071 
13.158305 4.873468 1.191071 
13.865222 4.808771 1.191071 
14.582506 4.726243 1.191071 
15.309048 4.626712 1.191071 
16.043727 4.511191 1.191071 
16.785406 4.380860 1.191071 
17.532938 4.237056 1.191071 
18.285167 4.081255 1.191071 
19.040929 3.915047 1.191071 
19.799055 3.740110 1.191071 
20.558372 3.558189 1.191071 
21.317703 3.371057 1.191071 
22.075875 3.180496 1.191071 
22.831713 2.988259 1.191071 
23.584049 2.796049 1.191071 
24.331718 2.605484 1.191071 
25.073563 2.418079 1.191071 
25.808439 2.235221 1.191071 
26.535208 2.058153 1.191071 
27.252748 1.887957 1.191071 
27.959950 1.725547 1.191071 
28.655724 1.571660 1.191071 
29.338994 1.426858 1.191071 
30.008707 1.291527 1.191071 
30.663830 1.165887 1.191071 
31.303353 1.050001 1.191071 
31.926292 0.943785 1.191071 
32.531686 0.847030 1.191071 
33.118603 0.759412 1.191071 
33.686141 0.680518 1.191071 
34.233426 0.609859 1.191071 
34.759615 0.546892 1.191071 
35.263900 0.491041 1.191071 
35.745505 0.441711 1.191071 
36.203689 0.398306 1.191071 
36.637748 0.360243 1.191071 
37.047014 0.326963 1.191071 
37.430857 0.297942 1.191071 
37.788689 0.272700 1.191071 
38.119957 0.250802 1.191071 
38.424153 0.231863 1.191071 
38.700809 0.215549 1.191071 
38.949498 0.201577 1.191071 
39.169839 0.189708 1.191071 
39.361492 0.179749 1.191071 
39.524162 0.171546 1.191071 
39.657598 0.164977 1.191071 
39.761595 0.159953 1.191071 
39.835994 0.156407 1.191071 
39.880679 0.154297 1.191071 
39.895582 0.153596 1.191071 
4.234482 0.000000 2.645998 
4.247038 0.241462 2.645998 
4.286970 0.482569 2.645998 
4.354217 0.722805 2.645998 
4.448678 0.961640 2.645998 
4.570206 1.198533 2.645998 
4.718615 1.432923 2.645998 
4.893677 1.664227 2.645998 
5.095125 1.891834 2.645998 
5.322648 2.115106 2.645998 
5.575897 2.333369 2.645998 
5.854484 2.545918 2.645998 
6.157981 2.752011 2.645998 
6.485922 2.950874 2.645998 
6.837803 3.141698 2.645998 
7.213086 3.323650 2.645998 
7.611193 3.495871 2.645998 
8.031515 3.657488 2.645998 
8.473405 3.807623 2.645998 
8.936185 3.945403 2.645998 
9.419145 4.069975 2.645998 
9.921544 4.180518 2.645998 
10.442609 4.276260 2.645998 
10.981539 4.356499 2.645998 
11.537507 4.420611 2.645998 
12.109656 4.468077 2.645998 
12.697106 4.498496 2.645998 
13.298952 4.511597 2.645998 
13.914267 4.507259 2.645998 
14.542101 4.485519 2.645998 
15.181487 4.446582 2.645998 
15.831436 4.390825 2.645998 
16.490944 4.318803 2.645998 
17.158992 4.231242 2.645998 
17.834545 4.129038 2.645998 
18.516558 4.013247 2.645998 
19.203974 3.885066 2.645998 
19.895729 3.745826 2.645998 
20.590748 3.596961 2.645998 
21.287956 3.439993 2.645998 
21.986270 3.276505 2.645998 
22.684607 3.108113 2.645998 
23.381884 2.936439 2.645998 
24.077020 2.763087 2.645998 
24.768936 2.589613 2.645998 
25.456560 2.417502 2.645998 
26.138826 2.248143 2.645998 
26.814678 2.082813 2.645998 
27.483069 1.922656 2.645998 
28.142965 1.768671 2.645998 
28.793346 1.621703 2.645998 
29.433206 1.482436 2.645998 
30.061558 1.351394 2.645998 
30.677432 1.228939 2.645998 
31.279878 1.115281 2.645998 
31.867967 1.010485 2.645998 
32.440795 0.914481 2.645998 
32.997479 0.827082 2.645998 
33.537164 0.748000 2.645998 
34.059018 0.676856 2.645998 
34.562241 0.613208 2.645998 
35.046058 0.556561 2.645998 
35.509728 0.506388 2.645998 
35.952538 0.462144 2.645998 
36.373807 0.423283 2.645998 
36.772890 0.389271 2.645998 
37.149174 0.359596 2.645998 
37.502081 0.333776 2.645998 
37.831069 0.311368 2.645998 
38.135632 0.291973 2.645998 
38.415304 0.275238 2.645998 
38.669654 0.260855 2.645998 
38.898291 0.248561 2.645998 
39.100865 0.238139 2.645998 
39.277063 0.229409 2.645998 
39.426615 0.222228 2.645998 
39.549291 0.216485 2.645998 
39.644902 0.212097 2.645998 
39.713301 0.209002 2.645998 
39.754382 0.207161 2.645998 
39.768083 0.206550 2.645998 
7.394541 0.000000 4.620622 
7.406064 0.203151 4.620622 
7.442394 0.406009 4.620622 
7.503478 0.608141 4.620622 
7.589222 0.809107 4.620622 
7.699493 1.008456 4.620622 
7.834123 1.205722 4.620622 
7.992904 1.400421 4.620622 
8.175593 1.592049 4.620622 
8.381909 1.780076 4.620622 
8.611536 1.963947 4.620622 
8.864120 2.143081 4.620622 
9.139273 2.316863 4.620622 
9.436573 2.484655 4.620622 
9.755563 2.645786 4.620622 
10.095754 2.799564 4.620622 
10.456622 2.945274 4.620622 
10.837614 3.082188 4.620622 
11.238144 3.209569 4.620622 
11.657597 3.326682 4.620622 
12.095330 3.432804 4.620622 
12.550668 3.527238 4.620622 
13.022913 3.609324 4.620622 
13.511338 3.678453 4.620622 
14.015192 3.734084 4.620622 
14.533700 3.775759 4.620622 
15.066063 3.803113 4.620622 
15.611462 3.815895 4.620622 
16.169057 3.813973 4.620622 
16.737987 3.797350 4.620622 
17.317374 3.766170 4.620622 
17.906325 3.720723 4.620622 
18.503929 3.661449 4.620622 
19.109263 3.588937 4.620622 
19.721391 3.503919 4.620622 
20.339365 3.407266 4.620622 
20.962230 3.299973 4.620622 
21.589020 3.183151 4.620622 
22.218764 3.058004 4.620622 
22.850487 2.925812 4.620622 
23.483210 2.787912 4.620622 
24.115952 2.645673 4.620622 
24.747733 2.500475 4.620622 
25.377572 2.353684 4.620622 
26.004495 2.206628 4.620622 
26.627529 2.060580 4.620622 
27.245710 1.916734 4.620622 
27.858082 1.776187 4.620622 
28.463695 1.639928 4.620622 
29.061614 1.508824 4.620622 
29.650915 1.383609 4.620622 
30.230686 1.264881 4.620622 
30.800033 1.153102 4.620622 
31.358078 1.048595 4.620622 
31.903959 0.951554 4.620622 
32.436835 0.862044 4.620622 
32.955885 0.780019 4.620622 
33.460311 0.705328 4.620622 
33.949335 0.637733 4.620622 
34.422207 0.576919 4.620622 
34.878198 0.522513 4.620622 
35.316608 0.474096 4.620622 
35.736763 0.431220 4.620622 
36.138017 0.393423 4.620622 
36.519755 0.360238 4.620622 
36.881390 0.331208 4.620622 
37.222366 0.305895 4.620622 
37.542159 0.283887 4.620622 
37.840279 0.264802 4.620622 
38.116266 0.248298 4.620622 
38.369698 0.234070 4.620622 
38.600185 0.221852 4.620622 
38.807371 0.211420 4.620622 
38.990940 0.202583 4.620622 
39.150607 0.195186 4.620622 
39.286129 0.189107 4.620622 
39.397296 0.184249 4.620622 
39.483937 0.180538 4.620622 
39.545918 0.177922 4.620622 
39.583146 0.176366 4.620622 
39.595561 0.175850 4.620622 
11.264229 0.000000 7.054945 
11.275047 0.152122 7.054945 
11.307527 0.303934 7.054945 
11.361619 0.455103 7.054945 
11.437240 0.605287 7.054945 
11.534273 0.754142 7.054945 
11.652568 0.901314 7.054945 
11.791943 1.046438 7.054945 
11.952184 1.189139 7.054945 
12.133042 1.329025 7.054945 
12.334239 1.465689 7.054945 
12.555466 1.598707 7.054945 
12.796381 1.727636 7.054945 
13.056612 1.852013 7.054945 
13.335758 1.971357 7.054945 
13.633389 2.085168 7.054945 
13.949046 2.192934 7.054945 
14.282243 2.294128 7.054945 
14.632465 2.388218 7.054945 
14.999173 2.474672 7.054945 
15.381801 2.552962 7.054945 
15.779760 2.622577 7.054945 
16.192435 2.683030 7.054945 
16.619191 2.733870 7.054945 
17.059369 2.774691 7.054945 
17.512291 2.805143 7.054945 
17.977259 2.824946 7.054945 
18.453555 2.833897 7.054945 
18.940446 2.831882 7.054945 
19.437180 2.818885 7.054945 
19.942992 2.794991 7.054945 
20.457101 2.760396 7.054945 
20.978715 2.715406 7.054945 
21.507029 2.660439 7.054945 
22.041229 2.596021 7.054945 
22.580491 2.522784 7.054945 
23.123984 2.441457 7.054945 
23.670869 2.352854 7.054945 
24.220303 2.257867 7.054945 
24.771438 2.157446 7.054945 
25.323425 2.052589 7.054945 
25.875413 1.944321 7.054945 
26.426550 1.833679 7.054945 
26.975986 1.721693 7.054945 
27.522874 1.609371 7.054945 
28.066371 1.497678 7.054945 
28.605639 1.387525 7.054945 
29.139845 1.279754 7.054945 
29.668166 1.175125 7.054945 
30.189788 1.074308 7.054945 
30.703905 0.977875 7.054945 
31.209726 0.886294 7.054945 
31.706471 0.799933 7.054945 
32.193372 0.719052 7.054945 
32.669680 0.643813 7.054945 
33.134660 0.574284 7.054945 
33.587596 0.510442 7.054945 
34.027788 0.452187 7.054945 
34.454558 0.399350 7.054945 
34.867248 0.351702 7.054945 
35.265222 0.308970 7.054945 
35.647867 0.270842 7.054945 
36.014591 0.236987 7.054945 
36.364831 0.207056 7.054945 
36.698045 0.180700 7.054945 
37.013720 0.157573 7.054945 
37.311370 0.137345 7.054945 
37.590536 0.119702 7.054945 
37.850786 0.104357 7.054945 
38.091720 0.091046 7.054945 
38.312967 0.079538 7.054945 
38.514185 0.069631 7.054945 
38.695064 0.061150 7.054945 
38.855325 0.053952 7.054945 
38.994721 0.047916 7.054945 
39.113037 0.042947 7.054945 
39.210091 0.038971 7.054945 
39.285733 0.035932 7.054945 
39.333458 0.033788 7.044642 
39.356861 0.032512 7.030093 
39.364645 0.032088 7.025238 
14.673577 -0.000000 9.875000 
14.680794 0.072201 9.875000 
14.701131 0.144122 9.875000 
14.734556 0.215590 9.875000 
14.781017 0.286432 9.875000 
14.840441 0.356473 9.875000 
14.912737 0.425537 9.875000 
14.997793 0.493446 9.875000 
15.095476 0.560020 9.875000 
15.205635 0.625074 9.875000 
15.328099 0.688420 9.875000 
15.462680 0.749863 9.875000 
15.609167 0.809204 9.875000 
15.767336 0.866238 9.875000 
15.936939 0.920752 9.875000 
16.117716 0.972526 9.875000 
16.309385 1.021336 9.875000 
16.511650 1.066952 9.875000 
16.724197 1.109141 9.875000 
16.946697 1.147670 9.875000 
17.178806 1.182306 9.875000 
17.420164 1.212824 9.875000 
17.670397 1.239008 9.875000 
17.929118 1.260654 9.875000 
18.195927 1.277579 9.875000 
18.470411 1.289624 9.875000 
18.752147 1.296660 9.875000 
19.040698 1.298591 9.875000 
19.335619 1.295359 9.875000 
19.636456 1.286953 9.875000 
19.942744 1.273406 9.875000 
20.254013 1.254802 9.875000 
20.569783 1.231276 9.875000 
20.889568 1.203014 9.875000 
21.212877 1.170255 9.875000 
21.539215 1.133287 9.875000 
21.868079 1.092445 9.875000 
22.198966 1.048106 9.875000 
22.531369 1.000682 9.875000 
22.864779 0.950620 9.875000 
23.198685 0.898386 9.875000 
23.532575 0.844465 9.875000 
23.865939 0.789347 9.875000 
24.198267 0.733524 9.875000 
24.529048 0.677476 9.875000 
24.857778 0.621668 9.875000 
25.183952 0.566540 9.875000 
25.507069 0.512500 9.875000 
25.826635 0.459920 9.875000 
26.142159 0.409128 9.875000 
26.453157 0.360410 9.875000 
26.759149 0.314001 9.875000 
27.059666 0.270086 9.875000 
27.354244 0.228804 9.875000 
27.642431 0.190244 9.875000 
27.923780 0.154449 9.875000 
28.197858 0.121420 9.875000 
28.464241 0.091119 9.875000 
28.722519 0.063475 9.875000 
28.972290 0.038388 9.875000 
29.213169 0.015734 9.875000 
29.444782 -0.004628 9.875000 
29.666771 -0.022853 9.875000 
29.878791 -0.039100 9.875000 
30.080515 -0.053534 9.875000 
30.271629 -0.066317 9.875000 
30.451837 -0.077604 9.875000 
30.620860 -0.087544 9.875000 
30.778436 -0.096274 9.875000 
30.924320 -0.103919 9.875000 
31.058287 -0.110588 9.875000 
31.180128 -0.116379 9.875000 
31.289656 -0.121375 9.875000 
31.386701 -0.125647 9.875000 
31.471112 -0.129250 9.875000 
31.542758 -0.132232 9.875000 
31.601530 -0.134628 9.875000 
31.647336 -0.136466 9.875000 
31.680106 -0.137766 9.875000 
31.699787 -0.138540 9.875000 
31.706351 -0.138798 9.875000 
17.742830 0.000000 12.995102 
17.746910 0.027449 12.995102 
17.757883 0.054671 12.995102 
17.775731 0.081591 12.995102 
17.800426 0.108136 12.995102 
17.831929 0.134234 12.995102 
17.870190 0.159813 12.995102 
17.915150 0.184802 12.995102 
17.966738 0.209131 12.995102 
18.024876 0.232731 12.995102 
18.089471 0.255530 12.995102 
18.160424 0.277460 12.995102 
18.237625 0.298452 12.995102 
18.320953 0.318432 12.995102 
18.410279 0.337331 12.995102 
18.505465 0.355075 12.995102 
18.606362 0.371588 12.995102 
18.712814 0.386796 12.995102 
18.824656 0.400623 12.995102 
18.941713 0.412990 12.995102 
19.063804 0.423823 12.995102 
19.190740 0.433046 12.995102 
19.322322 0.440588 12.995102 
19.458348 0.446381 12.995102 
19.598607 0.450363 12.995102 
19.742880 0.452482 12.995102 
19.890944 0.452693 12.995102 
20.042571 0.450964 12.995102 
20.197526 0.447277 12.995102 
20.355570 0.441627 12.995102 
20.516459 0.434029 12.995102 
20.679946 0.424511 12.995102 
20.845780 0.413125 12.995102 
21.013705 0.399938 12.995102 
21.183465 0.385038 12.995102 
21.354800 0.368531 12.995102 
21.527448 0.350541 12.995102 
21.701144 0.331208 12.995102 
21.875625 0.310686 12.995102 
22.050624 0.289142 12.995102 
22.225874 0.266754 12.995102 
22.401110 0.243702 12.995102 
22.576063 0.220176 12.995102 
22.750468 0.196362 12.995102 
22.924060 0.172445 12.995102 
23.096573 0.148605 12.995102 
23.267746 0.125014 12.995102 
23.437316 0.101831 12.995102 
23.605025 0.079203 12.995102 
23.770617 0.057262 12.995102 
23.933837 0.036122 12.995102 
24.094437 0.015879 12.995102 
24.252169 -0.003388 12.995102 
24.406791 -0.021619 12.995102 
24.558064 -0.038774 12.995102 
24.705756 -0.054828 12.995102 
24.849638 -0.069775 12.995102 
24.989488 -0.083623 12.995102 
25.125088 -0.096392 12.995102 
25.256230 -0.108114 12.995102 
25.382708 -0.118833 12.995102 
25.504328 -0.128596 12.995102 
25.620898 -0.137458 12.995102 
25.732239 -0.145476 12.995102 
25.838177 -0.152711 12.995102 
25.938547 -0.159220 12.995102 
26.033192 -0.165061 12.995102 
26.121966 -0.170288 12.995102 
26.204729 -0.174951 12.995102 
26.281354 -0.179097 12.995102 
26.351720 -0.182767 12.995102 
26.415719 -0.185997 12.995102 
26.473251 -0.188817 12.995102 
26.524227 -0.191255 12.995102 
26.568566 -0.193330 12.995102 
26.606202 -0.195061 12.995102 
26.637074 -0.196462 12.995102 
26.661136 -0.197541 12.995102 
26.678349 -0.198307 12.995102 
26.688688 -0.198765 12.995102 
26.692136 -0.198917 12.995102 
19.820737 -0.000000 16.320448 
19.824611 0.017414 16.320448 
19.834819 0.034522 16.320448 
19.851343 0.051272 16.320448 
19.874156 0.067612 16.320448 
19.903222 0.083491 16.320448 
19.938497 0.098861 16.320448 
19.979923 0.113673 16.320448 
20.027437 0.127883 16.320448 
20.080964 0.141447 16.320448 
20.140422 0.154323 16.320448 
20.205716 0.166470 16.320448 
20.276747 0.177848 16.320448 
20.353403 0.188420 16.320448 
20.435566 0.198147 16.320448 
20.523107 0.206991 16.320448 
20.615892 0.214915 16.320448 
20.713775 0.221880 16.320448 
20.816605 0.227849 16.320448 
20.924222 0.232783 16.320448 
21.036460 0.236647 16.320448 
21.153142 0.239401 16.320448 
21.274090 0.241012 16.320448 
21.399114 0.241446 16.320448 
21.528021 0.240673 16.320448 
21.660611 0.238667 16.320448 
21.796678 0.235408 16.320448 
21.936013 0.230881 16.320448 
22.078399 0.225080 16.320448 
22.223616 0.218006 16.320448 
22.371442 0.209672 16.320448 
22.521648 0.200099 16.320448 
22.674003 0.189321 16.320448 
22.828275 0.177383 16.320448 
22.984225 0.164341 16.320448 
23.141616 0.150263 16.320448 
23.300208 0.135228 16.320448 
23.459758 0.119327 16.320448 
23.620024 0.102656 16.320448 
23.780761 0.085325 16.320448 
23.941726 0.067445 16.320448 
24.102673 0.049135 16.320448 
24.263359 0.030517 16.320448 
24.423539 0.011712 16.320448 
24.582970 -0.007157 16.320448 
24.741409 -0.025974 16.320448 
24.898617 -0.044623 16.320448 
25.054353 -0.062999 16.320448 
25.208381 -0.081001 16.320448 
25.360464 -0.098539 16.320448 
25.510372 -0.115535 16.320448 
25.657875 -0.131919 16.320448 
25.802745 -0.147634 16.320448 
25.944762 -0.162636 16.320448 
26.083705 -0.176890 16.320448 
26.219362 -0.190374 16.320448 
26.351522 -0.203078 16.320448 
26.479981 -0.214997 16.320448 
26.604540 -0.226140 16.320448 
26.725006 -0.236521 16.320448 
26.841191 -0.246159 16.320448 
26.952914 -0.255082 16.320448 
27.060002 -0.263318 16.320448 
27.162288 -0.270899 16.320448 
27.259612 -0.277858 16.320448 
27.351822 -0.284230 16.320448 
27.438775 -0.290046 16.320448 
27.520334 -0.295338 16.320448 
27.596373 -0.300136 16.320448 
27.666772 -0.304466 16.320448 
27.731423 -0.308353 16.320448 
27.790224 -0.311817 16.320448 
27.843083 -0.314876 16.320448 
27.889919 -0.317545 16.320448 
27.930659 -0.319838 16.320448 
27.965238 -0.321764 16.320448 
27.993604 -0.323330 16.320448 
28.015712 -0.324543 16.320448 
28.031528 -0.325406 16.320448 
28.041028 -0.325923 16.320448 
28.044196 -0.326095 16.320448 
21.963758 -0.000000 19.750000 
21.967289 0.010954 19.750000 
21.976574 0.021535 19.750000 
21.991598 0.031707 19.750000 
22.012337 0.041433 19.750000 
22.038758 0.050679 19.750000 
22.070819 0.059413 19.750000 
22.108470 0.067603 19.750000 
22.151651 0.075221 19.750000 
22.200296 0.082241 19.750000 
22.254328 0.088638 19.750000 
22.313663 0.094390 19.750000 
22.378209 0.099477 19.750000 
22.447866 0.103878 19.750000 
22.522526 0.107577 19.750000 
22.602074 0.110556 19.750000 
22.686385 0.112799 19.750000 
22.775329 0.114290 19.750000 
22.868768 0.115013 19.750000 
22.966558 0.114955 19.750000 
23.068546 0.114099 19.750000 
23.174574 0.112432 19.750000 
23.284479 0.109940 19.750000 
23.398089 0.106611 19.750000 
23.515229 0.102434 19.750000 
23.635716 0.097401 19.750000 
23.759366 0.091505 19.750000 
23.885985 0.084745 19.750000 
24.015378 0.077122 19.750000 
24.147347 0.068645 19.750000 
24.281686 0.059325 19.750000 
24.418189 0.049180 19.750000 
24.556647 0.038238 19.750000 
24.696847 0.026529 19.750000 
24.838573 0.014093 19.750000 
24.981609 0.000977 19.750000 
25.125736 -0.012766 19.750000 
25.270735 -0.027075 19.750000 
25.416384 -0.041885 19.750000 
25.562461 -0.057125 19.750000 
25.708745 -0.072719 19.750000 
25.855012 -0.088589 19.750000 
26.001042 -0.104652 19.750000 
26.146611 -0.120828 19.750000 
26.291499 -0.137033 19.750000 
26.435485 -0.153189 19.750000 
26.578351 -0.169217 19.750000 
26.719879 -0.185043 19.750000 
26.859854 -0.200599 19.750000 
26.998062 -0.215819 19.750000 
27.134292 -0.230648 19.750000 
27.268336 -0.245034 19.750000 
27.399987 -0.258935 19.750000 
27.529045 -0.272314 19.750000 
27.655310 -0.285144 19.750000 
27.778587 -0.297402 19.750000 
27.898687 -0.309075 19.750000 
28.015424 -0.320154 19.750000 
28.128616 -0.330636 19.750000 
28.238089 -0.340526 19.750000 
28.343672 -0.349829 19.750000 
28.445200 -0.358557 19.750000 
28.542516 -0.366721 19.750000 
28.635468 -0.374339 19.750000 
28.723912 -0.381425 19.750000 
28.807708 -0.387996 19.750000 
28.886727 -0.394070 19.750000 
28.960844 -0.399662 19.750000 
29.029945 -0.404788 19.750000 
29.093922 -0.409461 19.750000 
29.152674 -0.413695 19.750000 
29.206110 -0.417499 19.750000 
29.254147 -0.420883 19.750000 
29.296710 -0.423854 19.750000 
29.333732 -0.426420 19.750000 
29.365157 -0.428584 19.750000 
29.390935 -0.430350 19.750000 
29.411027 -0.431722 19.750000 
29.425400 -0.432700 19.750000 
29.434033 -0.433286 19.750000 
29.436912 -0.433482 19.750000 
24.106780 -0.000000 23.179552 
24.109927 0.007241 23.179552 
24.118251 0.014068 23.179552 
24.131738 0.020455 23.179552 
24.150366 0.026377 23.179552 
24.174105 0.031809 23.179552 
24.202917 0.036730 23.179552 
24.236758 0.041118 23.179552 
24.275574 0.044956 23.179552 
24.319305 0.048227 23.179552 
24.367882 0.050917 23.179552 
24.421230 0.053015 23.179552 
24.479266 0.054508 23.179552 
24.541900 0.055390 23.179552 
24.609035 0.055652 23.179552 
24.680567 0.055289 23.179552 
24.756386 0.054294 23.179552 
24.836374 0.052664 23.179552 
24.920407 0.050394 23.179552 
25.008356 0.047481 23.179552 
25.100083 0.043921 23.179552 
25.195447 0.039713 23.179552 
25.294300 0.034853 23.179552 
25.396490 0.029341 23.179552 
25.501857 0.023175 23.179552 
25.610239 0.016357 23.179552 
25.721468 0.008888 23.179552 
25.835373 0.000774 23.179552 
25.951776 -0.007979 23.179552 
26.070498 -0.017360 23.179552 
26.191356 -0.027355 23.179552 
26.314165 -0.037948 23.179552 
26.438734 -0.049116 23.179552 
26.564873 -0.060833 23.179552 
26.692388 -0.073067 23.179552 
26.821084 -0.085785 23.179552 
26.950763 -0.098945 23.179552 
27.081228 -0.112502 23.179552 
27.212280 -0.126410 23.179552 
27.343718 -0.140615 23.179552 
27.475342 -0.155062 23.179552 
27.606953 -0.169694 23.179552 
27.738350 -0.184452 23.179552 
27.869333 -0.199276 23.179552 
27.999703 -0.214107 23.179552 
28.129262 -0.228884 23.179552 
28.257812 -0.243551 23.179552 
28.385157 -0.258052 23.179552 
28.511104 -0.272335 23.179552 
28.635461 -0.286351 23.179552 
28.758037 -0.300056 23.179552 
28.878644 -0.313410 23.179552 
28.997099 -0.326379 23.179552 
29.113218 -0.338930 23.179552 
29.226824 -0.351041 23.179552 
29.337741 -0.362689 23.179552 
29.445798 -0.373860 23.179552 
29.550828 -0.384542 23.179552 
29.652668 -0.394728 23.179552 
29.751161 -0.404414 23.179552 
29.846153 -0.413600 23.179552 
29.937497 -0.422287 23.179552 
30.025051 -0.430480 23.179552 
30.108678 -0.438184 23.179552 
30.188249 -0.445406 23.179552 
30.263638 -0.452152 23.179552 
30.334728 -0.458431 23.179552 
30.401409 -0.464250 23.179552 
30.463577 -0.469615 23.179552 
30.521134 -0.474533 23.179552 
30.573991 -0.479010 23.179552 
30.622065 -0.483050 23.179552 
30.665281 -0.486658 23.179552 
30.703573 -0.489836 23.179552 
30.736881 -0.492587 23.179552 
30.765152 -0.494913 23.179552 
30.788344 -0.496814 23.179552 
30.806419 -0.498293 23.179552 
30.819350 -0.499349 23.179552 
30.827116 -0.499982 23.179552 
30.829706 -0.500193 23.179552 
26.184687 -0.000000 26.504898 
26.187475 0.005312 26.504898 
26.194882 0.010205 26.504898 
26.206895 0.014656 26.504898 
26.223495 0.018648 26.504898 
26.244654 0.022162 26.504898 
26.270339 0.025181 26.504898 
26.300510 0.027692 26.504898 
26.335120 0.029680 26.504898 
26.374113 0.031136 26.504898 
26.417431 0.032049 26.504898 
26.465005 0.032414 26.504898 
26.516761 0.032224 26.504898 
26.572620 0.031476 26.504898 
26.632495 0.030166 26.504898 
26.696293 0.028293 26.504898 
26.763916 0.025858 26.504898 
26.835259 0.022859 26.504898 
26.910212 0.019298 26.504898 
26.988658 0.015177 26.504898 
27.070477 0.010496 26.504898 
27.155542 0.005258 26.504898 
27.243721 -0.000534 26.504898 
27.334878 -0.006878 26.504898 
27.428872 -0.013769 26.504898 
27.525557 -0.021204 26.504898 
27.624783 -0.029175 26.504898 
27.726398 -0.037677 26.504898 
27.830244 -0.046699 26.504898 
27.936160 -0.056230 26.504898 
28.043985 -0.066256 26.504898 
28.153550 -0.076762 26.504898 
28.264688 -0.087726 26.504898 
28.377229 -0.099126 26.504898 
28.490998 -0.110936 26.504898 
28.605822 -0.123125 26.504898 
28.721524 -0.135662 26.504898 
28.837929 -0.148508 26.504898 
28.954858 -0.161625 26.504898 
29.072132 -0.174971 26.504898 
29.189574 -0.188502 26.504898 
29.307003 -0.202170 26.504898 
29.424242 -0.215929 26.504898 
29.541112 -0.229730 26.504898 
29.657434 -0.243525 26.504898 
29.773033 -0.257266 26.504898 
29.887731 -0.270906 26.504898 
30.001355 -0.284400 26.504898 
30.113730 -0.297705 26.504898 
30.224686 -0.310782 26.504898 
30.334052 -0.323592 26.504898 
30.441662 -0.336102 26.504898 
30.547350 -0.348281 26.504898 
30.650954 -0.360103 26.504898 
30.752314 -0.371545 26.504898 
30.851275 -0.382588 26.504898 
30.947684 -0.393216 26.504898 
31.041391 -0.403417 26.504898 
31.132253 -0.413181 26.504898 
31.220127 -0.422502 26.504898 
31.304877 -0.431376 26.504898 
31.386373 -0.439801 26.504898 
31.464486 -0.447778 26.504898 
31.539096 -0.455306 26.504898 
31.610086 -0.462388 26.504898 
31.677345 -0.469026 26.504898 
31.740770 -0.475224 26.504898 
31.800260 -0.480985 26.504898 
31.855723 -0.486311 26.504898 
31.907073 -0.491205 26.504898 
31.954230 -0.495669 26.504898 
31.997119 -0.499706 26.504898 
32.035675 -0.503316 26.504898 
32.069837 -0.506501 26.504898 
32.099553 -0.509262 26.504898 
32.124775 -0.511597 26.504898 
32.145465 -0.513509 26.504898 
32.161591 -0.514996 26.504898 
32.173127 -0.516058 26.504898 
32.180056 -0.516696 26.504898 
32.182367 -0.516908 26.504898 
28.134343 -0.000000 29.625000 
28.136824 0.004491 29.625000 
28.143402 0.008588 29.625000 
28.154065 0.012273 29.625000 
28.168797 0.015530 29.625000 
28.187574 0.018344 29.625000 
28.210366 0.020700 29.625000 
28.237138 0.022588 29.625000 
28.267846 0.023995 29.625000 
28.302443 0.024914 29.625000 
28.340876 0.025336 29.625000 
28.383084 0.025258 29.625000 
28.429002 0.024674 29.625000 
28.478560 0.023582 29.625000 
28.531679 0.021981 29.625000 
28.588279 0.019870 29.625000 
28.648271 0.017251 29.625000 
28.711563 0.014123 29.625000 
28.778058 0.010490 29.625000 
28.847651 0.006353 29.625000 
28.920236 0.001715 29.625000 
28.995700 -0.003420 29.625000 
29.073927 -0.009051 29.625000 
29.154794 -0.015172 29.625000 
29.238178 -0.021780 29.625000 
29.323950 -0.028869 29.625000 
29.411975 -0.036434 29.625000 
29.502119 -0.044466 29.625000 
29.594242 -0.052957 29.625000 
29.688202 -0.061896 29.625000 
29.783854 -0.071270 29.625000 
29.881050 -0.081064 29.625000 
29.979641 -0.091260 29.625000 
30.079475 -0.101837 29.625000 
30.180399 -0.112773 29.625000 
30.282258 -0.124039 29.625000 
30.384897 -0.135607 29.625000 