VARIABLES = "CoordinateX", "CoordinateY", "CoordinateZ"
Zone T="FFD_vol0" I=10 J=2 K=17
DATAPACKING=POINT
-1.220000 -1.040059 -0.240000 
-1.050183 -1.410748 -0.240000 
0.440070 -2.356249 -0.240000 
5.242945 -3.220879 -0.240000 
14.345816 -3.181957 -0.240000 
25.613299 -2.200574 -0.240000 
34.707376 -1.363636 -0.240000 
39.496778 -1.120020 -0.240000 
40.975183 -1.089543 -0.240000 
41.140321 -1.088059 -0.240000 
-1.220000 1.040059 -0.240000 
-1.050183 1.822999 -0.240000 
0.440070 3.913678 -0.240000 
5.242945 6.223499 -0.240000 
14.345816 6.319032 -0.240000 
25.613299 3.535834 -0.240000 
34.707376 1.636025 -0.240000 
39.496778 1.172601 -0.240000 
40.975183 1.093375 -0.240000 
41.140321 1.088059 -0.240000 
-1.150038 -1.026703 0.379491 
-0.980793 -1.399597 0.379491 
0.505297 -2.350027 0.379491 
5.295583 -3.217773 0.379491 
14.375767 -3.172264 0.379491 
25.616156 -2.170867 0.379491 
34.688198 -1.316570 0.379491 
39.465914 -1.066038 0.379491 
40.940802 -1.033972 0.379491 
41.105592 -1.032376 0.379491 
-1.150038 1.026703 0.379491 
-0.980793 1.811787 0.379491 
0.505297 3.910539 0.379491 
5.295583 6.238977 0.379491 
14.375767 6.353560 0.379491 
25.616156 3.567835 0.379491 
34.688198 1.663943 0.379491 
39.465914 1.202117 0.379491 
40.940802 1.123765 0.379491 
41.105592 1.118520 0.379491 
0.800709 -0.845992 1.503379 
0.962494 -1.204030 1.503379 
2.376812 -2.115124 1.503379 
6.930777 -2.944081 1.503379 
15.561385 -2.887553 1.503379 
26.245942 -1.896448 1.503379 
34.869796 -1.050051 1.503379 
39.413057 -0.798120 1.503379 
40.817487 -0.764421 1.503379 
40.975272 -0.762675 1.503379 
0.800709 0.845992 1.503379 
0.962494 1.592867 1.503379 
2.376812 3.594575 1.503379 
6.930777 5.837385 1.503379 
15.561385 5.990315 1.503379 
26.245942 3.349608 1.503379 
34.869796 1.536995 1.503379 
39.413057 1.102777 1.503379 
40.817487 1.030452 1.503379 
40.975272 1.025637 1.503379 
4.219005 -0.499088 3.328475 
4.372965 -0.816408 3.328475 
5.676881 -1.622832 3.328475 
9.840597 -2.354420 3.328475 
17.711148 -2.297477 3.328475 
27.448731 -1.402165 3.328475 
35.313118 -0.636312 3.328475 
39.466829 -0.406563 3.328475 
40.761318 -0.375092 3.328475 
40.911436 -0.373428 3.328475 
4.219005 0.499088 3.328475 
4.372965 1.151706 3.328475 
5.676881 2.904284 3.328475 
9.840597 4.885942 3.328475 
17.711148 5.059841 3.328475 
27.448731 2.755197 3.328475 
35.313118 1.159413 3.328475 
39.466829 0.780489 3.328475 
40.761318 0.718444 3.328475 
40.911436 0.714337 3.328475 
8.232624 -0.526595 5.784641 
8.410133 -0.778594 5.784641 
9.677971 -1.419448 5.784641 
13.524737 -2.001558 5.784641 
20.671450 -1.965594 5.784641 
29.472215 -1.272672 5.784641 
36.611354 -0.678519 5.784641 
40.446197 -0.503114 5.784641 
41.703254 -0.480051 5.784641 
41.876452 -0.478872 5.784641 
8.232624 0.526595 5.784641 
8.410133 1.035894 5.784641 
9.677971 2.402013 5.784641 
13.524737 3.947081 5.784641 
20.671450 4.093271 5.784641 
29.472215 2.281480 5.784641 
36.611354 1.008901 5.784641 
40.446197 0.703811 5.784641 
41.703254 0.653693 5.784641 
41.876452 0.650376 5.784641 
12.517903 -0.396597 8.777488 
12.646335 -0.541018 8.777488 
13.551001 -0.910876 8.777488 
16.282698 -1.253264 8.777488 
21.347133 -1.260681 8.777488 
27.577403 -0.914337 8.777488 
32.631787 -0.615584 8.777488 
35.348486 -0.534991 8.777488 
36.240264 -0.527151 8.777488 
36.363658 -0.526873 8.777488 
12.517903 0.396597 8.777488 
12.646335 0.682751 8.777488 
13.551001 1.444311 8.777488 
16.282698 2.289090 8.777488 
21.347133 2.345037 8.777488 
27.577403 1.293229 8.777488 
32.631787 0.538870 8.777488 
35.348486 0.348701 8.777488 
36.240264 0.315791 8.777488 
36.363658 0.313581 8.777488 
16.636984 -0.241104 12.192002 
16.695834 -0.286066 12.192002 
17.093242 -0.404119 12.192002 
18.275370 -0.521636 12.192002 
20.454164 -0.551207 12.192002 
23.127847 -0.486323 12.192002 
25.296326 -0.428543 12.192002 
26.463220 -0.420566 12.192002 
26.847588 -0.422817 12.192002 
26.901346 -0.423080 12.192002 
16.636984 0.241104 12.192002 
16.695834 0.328074 12.192002 
17.093242 0.554694 12.192002 
18.275370 0.791368 12.192002 
20.454164 0.778018 12.192002 
23.127847 0.424758 12.192002 
25.296326 0.164293 12.192002 
26.463220 0.090515 12.192002 
26.847588 0.076140 12.192002 
26.901346 0.075143 12.192002 
18.969795 -0.240000 15.896966 
19.025592 -0.268000 15.896966 
19.393724 -0.346317 15.896966 
20.479414 -0.438465 15.896966 
22.473986 -0.499303 15.896966 
24.918797 -0.519234 15.896966 
26.902678 -0.532367 15.896966 
27.972795 -0.551740 15.896966 
28.327658 -0.559913 15.896966 
28.378282 -0.560583 15.896966 
18.969795 0.240000 15.896966 
19.025592 0.292274 15.896966 
19.393724 0.422113 15.896966 
20.479414 0.537740 15.896966 
22.473986 0.483148 15.896966 
24.918797 0.216860 15.896966 
26.902678 0.014459 15.896966 
27.972795 -0.053508 15.896966 
28.327658 -0.068771 15.896966 
28.378282 -0.069865 15.896966 
21.394295 -0.240000 19.750000 
21.447007 -0.257388 19.750000 
21.785135 -0.311934 19.750000 
22.771724 -0.393037 19.750000 
24.577184 -0.481720 19.750000 
26.787567 -0.562548 19.750000 
28.582440 -0.626107 19.750000 
29.553644 -0.665946 19.750000 
29.878627 -0.678827 19.750000 
29.926206 -0.679828 19.750000 
21.394295 0.240000 19.750000 
21.447007 0.270680 19.750000 
21.785135 0.339833 19.750000 
22.771724 0.378384 19.750000 
24.577184 0.290915 19.750000 
26.787567 0.067457 19.750000 
28.582440 -0.106531 19.750000 
29.553644 -0.174714 19.750000 
29.878627 -0.191663 19.750000 
29.926206 -0.192905 19.750000 
23.818793 -0.240000 23.603034 
23.868387 -0.251643 23.603034 
24.176429 -0.293579 23.603034 
25.063822 -0.369972 23.603034 
26.680155 -0.475468 23.603034 
28.656280 -0.589972 23.603034 
30.262289 -0.681254 23.603034 
31.134621 -0.732545 23.603034 
31.429732 -0.748109 23.603034 
31.474267 -0.749300 23.603034 
23.818793 0.240000 23.603034 
23.868387 0.259069 23.603034 
24.176429 0.295682 23.603034 
25.063822 0.293297 23.603034 
26.680155 0.187218 23.603034 
28.656280 -0.015942 23.603034 
30.262289 -0.176260 23.603034 
31.134621 -0.245266 23.603034 
31.429732 -0.263338 23.603034 
31.474267 -0.264676 23.603034 
26.150059 -0.240000 27.307998 
26.196680 -0.248840 27.307998 
26.475941 -0.283992 27.307998 
27.268366 -0.355556 27.307998 
28.703522 -0.463716 27.307998 
30.455149 -0.586984 27.307998 
31.880189 -0.685567 27.307998 
32.657795 -0.739342 27.307998 
32.924288 -0.755349 27.307998 
32.965905 -0.756568 27.307998 
26.150059 0.240000 27.307998 
26.196680 0.253643 27.307998 
26.475941 0.275800 27.307998 
27.268366 0.257451 27.307998 
28.703522 0.148345 27.307998 
30.455149 -0.038872 27.307998 
31.880189 -0.187437 27.307998 
32.657795 -0.254034 27.307998 
32.924288 -0.271841 27.307998 
32.965905 -0.273165 27.307998 
28.298479 -0.240045 30.722512 
28.342400 -0.247765 30.722512 
28.595359 -0.278934 30.722512 
29.300868 -0.343359 30.722512 
30.570039 -0.441772 30.722512 
32.115848 -0.554560 30.722512 
33.374998 -0.644801 30.722512 
34.065795 -0.693859 30.722512 
34.306061 -0.708433 30.722512 
34.345006 -0.709541 30.722512 
28.298479 0.240045 30.722512 
28.342400 0.251926 30.722512 
28.595359 0.270723 30.722512 
29.300868 0.252732 30.722512 
30.570039 0.153589 30.722512 
32.115848 -0.015022 30.722512 
33.374998 -0.148971 30.722512 
34.065795 -0.209240 30.722512 
34.306061 -0.225382 30.722512 
34.345006 -0.226583 30.722512 
30.181516 -0.243111 33.715359 
30.223104 -0.250812 33.715359 
30.453191 -0.279910 33.715359 
31.083008 -0.335986 33.715359 
32.207490 -0.417174 33.715359 
33.573758 -0.507798 33.715359 
34.688213 -0.580205 33.715359 
35.303312 -0.620205 33.715359 
35.520711 -0.632219 33.715359 
35.557324 -0.633136 33.715359 
30.181516 0.243111 33.715359 
30.223104 0.255631 33.715359 
30.453191 0.278251 33.715359 
31.083008 0.270991 33.715359 
32.207490 0.189703 33.715359 
33.573758 0.040540 33.715359 
34.688213 -0.077710 33.715359 
35.303312 -0.129463 33.715359 
35.520711 -0.143126 33.715359 
35.557324 -0.144139 33.715359 
31.726852 -0.265790 36.171525 
31.766544 -0.274342 36.171525 
31.977954 -0.303384 36.171525 
32.545896 -0.352266 36.171525 
33.552012 -0.414527 36.171525 
34.771311 -0.478917 36.171525 
35.767334 -0.530121 36.171525 
36.320489 -0.559750 36.171525 
36.519176 -0.568922 36.171525 
36.553882 -0.569627 36.171525 
31.726852 0.265790 36.171525 
31.766544 0.280733 36.171525 
31.977954 0.312118 36.171525 
32.545896 0.321721 36.171525 
33.552012 0.260564 36.171525 
34.771311 0.126352 36.171525 
35.767334 0.020521 36.171525 
36.320489 -0.023103 36.171525 
36.519176 -0.034252 36.171525 
36.553882 -0.035073 36.171525 
32.875136 -0.296121 37.996621 
32.913421 -0.306125 37.996621 
33.110969 -0.337007 37.996621 
33.632976 -0.381607 37.996621 
34.551192 -0.427931 37.996621 
35.661326 -0.468316 37.996621 
36.569386 -0.500015 37.996621 
37.076537 -0.520445 37.996621 
37.261326 -0.527173 37.996621 
37.294617 -0.527698 37.996621 
32.875136 0.296121 37.996621 
32.913421 0.314597 37.996621 
33.110969 0.357407 37.996621 
33.632976 0.386068 37.996621 
34.551192 0.342705 37.996621 
35.661326 0.215286 37.996621 
36.569386 0.115595 37.996621 
37.076537 0.077758 37.996621 
37.261326 0.068555 37.996621 
37.294617 0.067883 37.996621 
33.582250 -0.304608 39.120509 
33.619664 -0.316059 39.120509 
33.808656 -0.349455 39.120509 
34.302342 -0.392615 39.120509 
35.166383 -0.428734 39.120509 
36.209257 -0.452229 39.120509 
37.063121 -0.470123 39.120509 
37.541924 -0.484274 39.120509 
37.718149 -0.489388 39.120509 
37.750566 -0.489795 39.120509 
33.582250 0.304608 39.120509 
33.619664 0.326408 39.120509 
33.808656 0.379463 39.120509 
34.302342 0.424008 39.120509 
35.166383 0.392820 39.120509 
36.209257 0.265523 39.120509 
37.063121 0.166641 39.120509 
37.541924 0.131768 39.120509 
37.718149 0.123692 39.120509 
37.750566 0.123109 39.120509 
33.821014 -0.303914 39.660000 
33.858131 -0.315985 39.660000 
34.044227 -0.350569 39.660000 
34.528336 -0.393573 39.660000 
35.374068 -0.426234 39.660000 
36.394222 -0.443603 39.660000 
37.229778 -0.456469 39.660000 
37.699003 -0.468387 39.660000 
37.872334 -0.472940 39.660000 
37.904457 -0.473306 39.660000 
33.821014 0.303914 39.660000 
33.858131 0.327108 39.660000 
34.044227 0.384376 39.660000 
34.528336 0.435257 39.660000 
35.374068 0.408415 39.660000 
36.394222 0.280085 39.660000 
37.229778 0.180687 39.660000 
37.699003 0.146634 39.660000 
37.872334 0.138911 39.660000 
37.904457 0.138356 39.660000 
Zone T="embedding_vol" I=28 J=4 K=49
DATAPACKING=POINT
-1.220000 -1.040059 -0.240000 
-1.142289 -1.167136 -0.240000 
-1.023175 -1.300173 -0.240000 
-0.863872 -1.437571 -0.240000 
-0.429551 -1.719054 -0.240000 
0.150970 -1.998788 -0.240000 
0.867986 -2.263979 -0.240000 
2.194361 -2.611542 -0.240000 
3.870181 -2.884631 -0.240000 
5.959611 -3.070287 -0.240000 
8.502942 -3.157467 -0.240000 
11.444963 -3.142812 -0.240000 
14.706584 -3.024880 -0.240000 
18.195122 -2.809180 -0.240000 
21.763504 -2.529017 -0.240000 
25.251065 -2.224648 -0.240000 
28.510757 -1.932390 -0.240000 
31.450025 -1.672807 -0.240000 
33.989930 -1.462523 -0.240000 
36.075392 -1.312952 -0.240000 
37.746736 -1.214660 -0.240000 
39.068146 -1.153003 -0.240000 
39.781605 -1.125531 -0.240000 
40.358486 -1.106565 -0.240000 
40.789214 -1.094840 -0.240000 
40.946778 -1.091297 -0.240000 
41.064213 -1.089090 -0.240000 
41.140321 -1.088059 -0.240000 
-1.220000 -0.346686 -0.240000 
-1.142289 -0.341354 -0.240000 
-1.023175 -0.334615 -0.240000 
-0.863872 -0.326499 -0.240000 
-0.429551 -0.306264 -0.240000 
0.150970 -0.280900 -0.240000 
0.867986 -0.250660 -0.240000 
2.194361 -0.197978 -0.240000 
3.870181 -0.143384 -0.240000 
5.959611 -0.095374 -0.240000 
8.502942 -0.062236 -0.240000 
11.444963 -0.051422 -0.240000 
14.706584 -0.070172 -0.240000 
18.195122 -0.121256 -0.240000 
21.763504 -0.189538 -0.240000 
25.251065 -0.255410 -0.240000 
28.510757 -0.303242 -0.240000 
31.450025 -0.333311 -0.240000 
33.989930 -0.349874 -0.240000 
36.075392 -0.357098 -0.240000 
37.746736 -0.358787 -0.240000 
39.068146 -0.358658 -0.240000 
39.781605 -0.359157 -0.240000 
40.358486 -0.360163 -0.240000 
40.789214 -0.361339 -0.240000 
40.946778 -0.361885 -0.240000 
41.064213 -0.362349 -0.240000 
41.140321 -0.362686 -0.240000 
-1.220000 0.346686 -0.240000 
-1.142289 0.484427 -0.240000 
-1.023175 0.630944 -0.240000 
-0.863872 0.784574 -0.240000 
-0.429551 1.106527 -0.240000 
0.150970 1.436988 -0.240000 
0.867986 1.762659 -0.240000 
2.194361 2.215586 -0.240000 
3.870181 2.597863 -0.240000 
5.959611 2.879538 -0.240000 
8.502942 3.032995 -0.240000 
11.444963 3.039969 -0.240000 
14.706584 2.884536 -0.240000 
18.195122 2.566669 -0.240000 
21.763504 2.149941 -0.240000 
25.251065 1.713828 -0.240000 
28.510757 1.325907 -0.240000 
31.450025 1.006185 -0.240000 
33.989930 0.762774 -0.240000 
36.075392 0.598756 -0.240000 
37.746736 0.497086 -0.240000 
39.068146 0.435687 -0.240000 
39.781605 0.407217 -0.240000 
40.358486 0.386240 -0.240000 
40.789214 0.372163 -0.240000 
40.946778 0.367526 -0.240000 
41.064213 0.364392 -0.240000 
41.140321 0.362686 -0.240000 
-1.220000 1.040059 -0.240000 
-1.142289 1.310209 -0.240000 
-1.023175 1.596502 -0.240000 
-0.863872 1.895647 -0.240000 
-0.429551 2.519317 -0.240000 
0.150970 3.154876 -0.240000 
0.867986 3.775978 -0.240000 
2.194361 4.629150 -0.240000 
3.870181 5.339111 -0.240000 
5.959611 5.854451 -0.240000 
8.502942 6.128226 -0.240000 
11.444963 6.131360 -0.240000 
14.706584 5.839243 -0.240000 
18.195122 5.254593 -0.240000 
21.763504 4.489421 -0.240000 
25.251065 3.683065 -0.240000 
28.510757 2.955055 -0.240000 
31.450025 2.345680 -0.240000 
33.989930 1.875423 -0.240000 
36.075392 1.554610 -0.240000 
37.746736 1.352959 -0.240000 
39.068146 1.230032 -0.240000 
39.781605 1.173591 -0.240000 
40.358486 1.132642 -0.240000 
40.789214 1.105664 -0.240000 
40.946778 1.096938 -0.240000 
41.064213 1.091133 -0.240000 
41.140321 1.088059 -0.240000 
-1.164275 -1.032844 -0.035524 
-1.086700 -1.160049 -0.035524 
-0.967791 -1.293212 -0.035524 
-0.808759 -1.430734 -0.035524 
-0.375172 -1.712450 -0.035524 
0.204374 -1.992392 -0.035524 
0.920190 -2.257755 -0.035524 
2.244359 -2.605485 -0.035524 
3.917408 -2.878587 -0.035524 
6.003407 -3.064044 -0.035524 
8.542589 -3.150763 -0.035524 
11.479835 -3.135338 -0.035524 
14.736192 -3.016280 -0.035524 
18.219126 -2.799088 -0.035524 
21.781795 -2.517195 -0.035524 
25.263777 -2.211017 -0.035524 
28.518252 -1.917019 -0.035524 
31.452813 -1.655860 -0.035524 
33.988650 -1.444246 -0.035524 
36.070771 -1.293646 -0.035524 
37.739444 -1.194593 -0.035524 
39.058748 -1.132380 -0.035524 
39.771078 -1.104626 -0.035524 
40.347052 -1.085444 -0.035524 
40.777110 -1.073567 -0.035524 
40.934433 -1.069972 -0.035524 
41.051691 -1.067728 -0.035524 
41.127689 -1.066678 -0.035524 
-1.164275 -0.344281 -0.035524 
-1.086700 -0.339036 -0.035524 
-0.967791 -0.332372 -0.035524 
-0.808759 -0.324320 -0.035524 
-0.375172 -0.304172 -0.035524 
0.204374 -0.278834 -0.035524 
0.920190 -0.248549 -0.035524 
2.244359 -0.195649 -0.035524 
3.917408 -0.140630 -0.035524 
6.003407 -0.091959 -0.035524 
8.542589 -0.057910 -0.035524 
11.479835 -0.045975 -0.035524 
14.736192 -0.063451 -0.035524 
18.219126 -0.113160 -0.035524 
21.781795 -0.180038 -0.035524 
25.263777 -0.244545 -0.035524 
28.518252 -0.291111 -0.035524 
31.452813 -0.320054 -0.035524 
33.988650 -0.335658 -0.035524 
36.070771 -0.342110 -0.035524 
37.739444 -0.343197 -0.035524 
39.058748 -0.342608 -0.035524 
39.771078 -0.342866 -0.035524 
40.347052 -0.343683 -0.035524 
40.777110 -0.344725 -0.035524 
40.934433 -0.345225 -0.035524 
41.051691 -0.345656 -0.035524 
41.127689 -0.345975 -0.035524 
-1.164275 0.344281 -0.035524 
-1.086700 0.481977 -0.035524 
-0.967791 0.628469 -0.035524 
-0.808759 0.782095 -0.035524 
-0.375172 1.104107 -0.035524 
0.204374 1.434723 -0.035524 
0.920190 1.760656 -0.035524 
2.244359 2.214187 -0.035524 
3.917408 2.597327 -0.035524 
6.003407 2.880126 -0.035524 
8.542589 3.034943 -0.035524 
11.479835 3.043387 -0.035524 
14.736192 2.889379 -0.035524 
18.219126 2.572767 -0.035524 
21.781795 2.157119 -0.035524 
25.263777 1.721928 -0.035524 
28.518252 1.334796 -0.035524 
31.452813 1.015752 -0.035524 
33.988650 0.772929 -0.035524 
36.070771 0.609426 -0.035524 
37.739444 0.508198 -0.035524 
39.058748 0.447165 -0.035524 
39.771078 0.418894 -0.035524 
40.347052 0.398077 -0.035524 
40.777110 0.384117 -0.035524 
40.934433 0.379522 -0.035524 
41.051691 0.376417 -0.035524 
41.127689 0.374728 -0.035524 
-1.164275 1.032844 -0.035524 
-1.086700 1.302990 -0.035524 
-0.967791 1.589309 -0.035524 
-0.808759 1.888510 -0.035524 
-0.375172 2.512385 -0.035524 
0.204374 3.148281 -0.035524 
0.920190 3.769862 -0.035524 
2.244359 4.624023 -0.035524 
3.917408 5.335284 -0.035524 
6.003407 5.852211 -0.035524 
8.542589 6.127796 -0.035524 
11.479835 6.132750 -0.035524 
14.736192 5.842208 -0.035524 
18.219126 5.258695 -0.035524 
21.781795 4.494275 -0.035524 
25.263777 3.688400 -0.035524 
28.518252 2.960704 -0.035524 
31.452813 2.351558 -0.035524 
33.988650 1.881517 -0.035524 
36.070771 1.560962 -0.035524 
37.739444 1.359593 -0.035524 
39.058748 1.236937 -0.035524 
39.771078 1.180654 -0.035524 
40.347052 1.139837 -0.035524 
40.777110 1.112959 -0.035524 
40.934433 1.104268 -0.035524 
41.051691 1.098490 -0.035524 
41.127689 1.095431 -0.035524 
-1.048259 -1.020454 0.165355 
-0.970919 -1.147561 0.165355 
-0.852374 -1.280615 0.165355 
-0.693833 -1.418016 0.165355 
-0.261588 -1.699465 0.165355 
0.316158 -1.979117 0.165355 
1.029746 -2.244179 0.165355 
2.349787 -2.591459 0.165355 
4.017622 -2.864088 0.165355 
6.097127 -3.049021 0.165355 
8.628418 -3.135130 0.165355 
11.556553 -3.118966 0.165355 
14.802829 -2.999000 0.165355 
18.275004 -2.780708 0.165355 
21.826683 -2.497589 0.165355 
25.297930 -2.190149 0.165355 
28.542373 -1.894936 0.165355 
31.467888 -1.632667 0.165355 
33.995915 -1.420098 0.165355 
36.071634 -1.268739 0.165355 
37.735190 -1.169101 0.165355 
39.050469 -1.106446 0.165355 
39.760639 -1.078460 0.165355 
40.334881 -1.059096 0.165355 
40.763661 -1.047089 0.165355 
40.920523 -1.043449 0.165355 
41.037445 -1.041174 0.165355 
41.113235 -1.040105 0.165355 
-1.048259 -0.340151 0.165355 
-0.970919 -0.335009 0.165355 
-0.852374 -0.328439 0.165355 
-0.693833 -0.320473 0.165355 
-0.261588 -0.300462 0.165355 
0.316158 -0.275210 0.165355 
1.029746 -0.244948 0.165355 
2.349787 -0.191940 0.165355 
4.017622 -0.136604 0.165355 
6.097127 -0.087364 0.165355 
8.628418 -0.052463 0.165355 
11.556553 -0.039420 0.165355 
14.802829 -0.055577 0.165355 
18.275004 -0.103812 0.165355 
21.826683 -0.169153 0.165355 
25.297930 -0.232169 0.165355 
28.542373 -0.277383 0.165355 
31.467888 -0.305145 0.165355 
33.995915 -0.319762 0.165355 
36.071634 -0.325432 0.165355 
37.735190 -0.325916 0.165355 
39.050469 -0.324868 0.165355 
39.760639 -0.324886 0.165355 
40.334881 -0.325513 0.165355 
40.763661 -0.326419 0.165355 
40.920523 -0.326871 0.165355 
41.037445 -0.327269 0.165355 
41.113235 -0.327569 0.165355 
-1.048259 0.340151 0.165355 
-0.970919 0.477544 0.165355 
-0.852374 0.623737 0.165355 
-0.693833 0.777071 0.165355 
-0.261588 1.098540 0.165355 
0.316158 1.428696 0.165355 
1.029746 1.754284 0.165355 
2.349787 2.207579 0.165355 
4.017622 2.590880 0.165355 
6.097127 2.874292 0.165355 
8.628418 3.030205 0.165355 
11.556553 3.040126 0.165355 
14.802829 2.887846 0.165355 
18.275004 2.573084 0.165355 
21.826683 2.159282 0.165355 
25.297930 1.725811 0.165355 
28.542373 1.340170 0.165355 
31.467888 1.022376 0.165355 
33.995915 0.780573 0.165355 
36.071634 0.617876 0.165355 
37.735190 0.517269 0.165355 
39.050469 0.456711 0.165355 
39.760639 0.428689 0.165355 
40.334881 0.408069 0.165355 
40.763661 0.394252 0.165355 
40.920523 0.389706 0.165355 
41.037445 0.386636 0.165355 
41.113235 0.384967 0.165355 
-1.048259 1.020454 0.165355 
-0.970919 1.290097 0.165355 
-0.852374 1.575912 0.165355 
-0.693833 1.874615 0.165355 
-0.261588 2.497543 0.165355 
0.316158 3.132603 0.165355 
1.029746 3.753516 0.165355 
2.349787 4.607099 0.165355 
4.017622 5.318364 0.165355 
6.097127 5.835949 0.165355 
8.628418 6.112872 0.165355 
11.556553 6.119672 0.165355 
14.802829 5.831269 0.165355 
18.275004 5.249980 0.165355 
21.826683 4.487718 0.165355 
25.297930 3.683790 0.165355 
28.542373 2.957723 0.165355 
31.467888 2.349897 0.165355 
33.995915 1.880909 0.165355 
36.071634 1.561183 0.165355 
37.735190 1.360455 0.165355 
39.050469 1.238289 0.165355 
39.760639 1.182264 0.165355 
40.334881 1.141652 0.165355 
40.763661 1.114922 0.165355 
40.920523 1.106283 0.165355 
41.037445 1.100541 0.165355 
41.113235 1.097503 0.165355 
-0.878730 -1.003420 0.363300 
-0.801709 -1.130222 0.363300 
-0.683667 -1.262949 0.363300 
-0.525807 -1.400005 0.363300 
-0.095438 -1.680727 0.363300 
0.479782 -1.959632 0.363300 
1.190236 -2.223963 0.363300 
2.504457 -2.570228 0.363300 
4.164919 -2.841942 0.363300 
6.235224 -3.026053 0.363300 
8.755313 -3.111419 0.363300 
11.670499 -3.094556 0.363300 
14.902432 -2.973891 0.363300 
18.359283 -2.754870 0.363300 
21.895300 -2.471003 0.363300 
25.351248 -2.162818 0.363300 
28.581395 -1.866886 0.363300 
31.494028 -1.603946 0.363300 
34.010935 -1.390781 0.363300 
36.077543 -1.238919 0.363300 
37.733822 -1.138866 0.363300 
39.043381 -1.075876 0.363300 
39.750486 -1.047708 0.363300 
40.322268 -1.028196 0.363300 
40.749235 -1.016079 0.363300 
40.905446 -1.012400 0.363300 
41.021892 -1.010098 0.363300 
41.097388 -1.009013 0.363300 
-0.878730 -0.334473 0.363300 
-0.801709 -0.329447 0.363300 
-0.683667 -0.322990 0.363300 
-0.525807 -0.315128 0.363300 
-0.095438 -0.295301 0.363300 
0.479782 -0.270189 0.363300 
1.190236 -0.240012 0.363300 
2.504457 -0.187001 0.363300 
4.164919 -0.131454 0.363300 
6.235224 -0.081734 0.363300 
8.755313 -0.046041 0.363300 
11.670499 -0.031913 0.363300 
14.902432 -0.046724 0.363300 
18.359283 -0.093403 0.363300 
21.895300 -0.157102 0.363300 
25.351248 -0.218527 0.363300 
28.581395 -0.262319 0.363300 
31.494028 -0.288863 0.363300 
34.010935 -0.302477 0.363300 
36.077543 -0.307362 0.363300 
37.733822 -0.307247 0.363300 
39.043381 -0.305747 0.363300 
39.750486 -0.305527 0.363300 
40.322268 -0.305966 0.363300 
40.749235 -0.306735 0.363300 
40.905446 -0.307140 0.363300 
41.021892 -0.307503 0.363300 
41.097388 -0.307785 0.363300 
-0.878730 0.334473 0.363300 
-0.801709 0.471328 0.363300 
-0.683667 0.616970 0.363300 
-0.525807 0.769750 0.363300 
-0.095438 1.090124 0.363300 
0.479782 1.419254 0.363300 
1.190236 1.743939 0.363300 
2.504457 2.196225 0.363300 
4.164919 2.579035 0.363300 
6.235224 2.862585 0.363300 
8.755313 3.019338 0.363300 
11.670499 3.030730 0.363300 
14.902432 2.880443 0.363300 
18.359283 2.568063 0.363300 
21.895300 2.156799 0.363300 
25.351248 1.725765 0.363300 
28.581395 1.342248 0.363300 
31.494028 1.026220 0.363300 
34.010935 0.785828 0.363300 
36.077543 0.624196 0.363300 
37.733822 0.524372 0.363300 
39.043381 0.464382 0.363300 
39.750486 0.436654 0.363300 
40.322268 0.416264 0.363300 
40.749235 0.402610 0.363300 
40.905446 0.398121 0.363300 
41.021892 0.395091 0.363300 
41.097388 0.393444 0.363300 
-0.878730 1.003420 0.363300 
-0.801709 1.272103 0.363300 
-0.683667 1.556929 0.363300 
-0.525807 1.854627 0.363300 
-0.095438 2.475550 0.363300 
0.479782 3.108697 0.363300 
1.190236 3.727891 0.363300 
2.504457 4.579452 0.363300 
4.164919 5.289523 0.363300 
6.235224 5.806904 0.363300 
8.755313 6.084716 0.363300 
11.670499 6.093373 0.363300 
14.902432 5.807609 0.363300 
18.359283 5.229529 0.363300 
21.895300 4.470700 0.363300 
25.351248 3.670057 0.363300 
28.581395 2.946815 0.363300 
31.494028 2.341304 0.363300 
34.010935 1.874133 0.363300 
36.077543 1.555753 0.363300 
37.733822 1.355991 0.363300 
39.043381 1.234511 0.363300 
39.750486 1.178835 0.363300 
40.322268 1.138494 0.363300 
40.749235 1.111954 0.363300 
40.905446 1.103382 0.363300 
41.021892 1.097685 0.363300 
41.097388 1.094672 0.363300 
-0.406236 -0.957539 0.753048 
-0.330054 -1.083182 0.753048 
-0.213351 -1.214680 0.753048 
-0.057314 -1.350454 0.753048 
0.368004 -1.628512 0.753048 
0.936395 -1.904722 0.753048 
1.638355 -2.166452 0.753048 
2.936761 -2.509197 0.753048 
4.577147 -2.777924 0.753048 
6.622351 -2.959624 0.753048 
9.111842 -3.043179 0.753048 
11.991613 -3.025048 0.753048 
15.184286 -2.903583 0.753048 
18.599163 -2.684142 0.753048 
22.092262 -2.400107 0.753048 
25.506282 -2.091866 0.753048 
28.697261 -1.795867 0.753048 
31.574607 -1.532807 0.753048 
34.061071 -1.319443 0.753048 
36.102750 -1.167287 0.753048 
37.739137 -1.066883 0.753048 
39.033075 -1.003530 0.753048 
39.731815 -0.975136 0.753048 
40.296898 -0.955427 0.753048 
40.718934 -0.943155 0.753048 
40.873377 -0.939418 0.753048 
40.988537 -0.937073 0.753048 
41.063242 -0.935963 0.753048 
-0.406236 -0.319180 0.753048 
-0.330054 -0.314422 0.753048 
-0.213351 -0.308230 0.753048 
-0.057314 -0.300627 0.753048 
0.368004 -0.281289 0.753048 
0.936395 -0.256604 0.753048 
1.638355 -0.226765 0.753048 
2.936761 -0.174034 0.753048 
4.577147 -0.118357 0.753048 
6.622351 -0.067942 0.753048 
9.111842 -0.030865 0.753048 
11.991613 -0.014670 0.753048 
15.184286 -0.026769 0.753048 
18.599163 -0.070184 0.753048 
22.092262 -0.130374 0.753048 
25.506282 -0.188409 0.753048 
28.697261 -0.229233 0.753048 
31.574607 -0.253289 0.753048 
34.061071 -0.264896 0.753048 
36.102750 -0.268238 0.753048 
37.739137 -0.266967 0.753048 
39.033075 -0.264599 0.753048 
39.731815 -0.263919 0.753048 
40.296898 -0.263992 0.753048 
40.718934 -0.264494 0.753048 
40.873377 -0.264804 0.753048 
40.988537 -0.265101 0.753048 
41.063242 -0.265344 0.753048 
-0.406236 0.319180 0.753048 
-0.330054 0.454338 0.753048 
-0.213351 0.598221 0.753048 
-0.057314 0.749200 0.753048 
0.368004 1.065933 0.753048 
0.936395 1.391515 0.753048 
1.638355 1.712921 0.753048 
2.936761 2.161129 0.753048 
4.577147 2.541211 0.753048 
6.622351 2.823739 0.753048 
9.111842 2.981449 0.753048 
11.991613 2.995708 0.753048 
15.184286 2.850045 0.753048 
18.599163 2.543774 0.753048 
22.092262 2.139359 0.753048 
25.506282 1.715047 0.753048 
28.697261 1.337402 0.753048 
31.574607 1.026230 0.753048 
34.061071 0.789652 0.753048 
36.102750 0.630810 0.753048 
37.739137 0.532949 0.753048 
39.033075 0.474332 0.753048 
39.731815 0.447297 0.753048 
40.296898 0.427443 0.753048 
40.718934 0.414168 0.753048 
40.873377 0.409810 0.753048 
40.988537 0.406870 0.753048 
41.063242 0.405274 0.753048 
-0.406236 0.957539 0.753048 
-0.330054 1.223098 0.753048 
-0.213351 1.504671 0.753048 
-0.057314 1.799027 0.753048 
0.368004 2.413156 0.753048 
0.936395 3.039634 0.753048 
1.638355 3.652607 0.753048 
2.936761 4.496292 0.753048 
4.577147 5.200778 0.753048 
6.622351 5.715421 0.753048 
9.111842 5.993763 0.753048 
11.991613 6.006086 0.753048 
15.184286 5.726859 0.753048 
18.599163 5.157732 0.753048 
22.092262 4.409091 0.753048 
25.506282 3.618504 0.753048 
28.697261 2.904037 0.753048 
31.574607 2.305749 0.753048 
34.061071 1.844199 0.753048 
36.102750 1.529859 0.753048 
37.739137 1.332865 0.753048 
39.033075 1.213263 0.753048 
39.731815 1.158514 0.753048 
40.296898 1.118878 0.753048 
40.718934 1.092830 0.753048 
40.873377 1.084424 0.753048 
40.988537 1.078842 0.753048 
41.063242 1.075893 0.753048 
0.198991 -0.899437 1.139039 
0.274161 -1.023314 1.139039 
0.389221 -1.152949 1.139039 
0.543001 -1.286786 1.139039 
0.962037 -1.560841 1.139039 
1.521897 -1.833029 1.139039 
2.213214 -2.090903 1.139039 
3.491756 -2.428494 1.139039 
5.106863 -2.692972 1.139039 
7.120405 -2.871440 1.139039 
9.571250 -2.952866 1.139039 
12.406250 -2.933675 1.139039 
15.549254 -2.812155 1.139039 
18.910996 -2.593550 1.139039 
22.349750 -2.310937 1.139039 
25.710677 -2.004351 1.139039 
28.852071 -1.709927 1.139039 
31.684764 -1.448208 1.139039 
34.132722 -1.235836 1.139039 
36.142897 -1.084252 1.139039 
37.754173 -0.984080 1.139039 
39.028420 -0.920745 1.139039 
39.716635 -0.892301 1.139039 
40.273301 -0.872521 1.139039 
40.689163 -0.860175 1.139039 
40.841400 -0.856406 1.139039 
40.954965 -0.854034 1.139039 
41.028701 -0.852907 1.139039 
0.198991 -0.299812 1.139039 
0.274161 -0.295357 1.139039 
0.389221 -0.289474 1.139039 
0.543001 -0.282184 1.139039 
0.962037 -0.263465 1.139039 
1.521897 -0.239369 1.139039 
2.213214 -0.210064 1.139039 
3.491756 -0.157948 1.139039 
5.106863 -0.102501 1.139039 
7.120405 -0.051736 1.139039 
9.571250 -0.013564 1.139039 
12.406250 0.004499 1.139039 
15.549254 -0.004964 1.139039 
18.910996 -0.045053 1.139039 
22.349750 -0.101603 1.139039 
25.710677 -0.156131 1.139039 
28.852071 -0.193951 1.139039 
31.684764 -0.215555 1.139039 
34.132722 -0.225234 1.139039 
36.142897 -0.227129 1.139039 
37.754173 -0.224794 1.139039 
39.028420 -0.221637 1.139039 
39.716635 -0.220536 1.139039 
40.273301 -0.220269 1.139039 
40.689163 -0.220520 1.139039 
40.841400 -0.220742 1.139039 
40.954965 -0.220976 1.139039 
41.028701 -0.221182 1.139039 
0.198991 0.299812 1.139039 
0.274161 0.432599 1.139039 
0.389221 0.574001 1.139039 
0.543001 0.722419 1.139039 
0.962037 1.033911 1.139039 
1.521897 1.354292 1.139039 
2.213214 1.670776 1.139039 
3.491756 2.112599 1.139039 
5.106863 2.487969 1.139039 
7.120405 2.767968 1.139039 
9.571250 2.925739 1.139039 
12.406250 2.942674 1.139039 
15.549254 2.802227 1.139039 
18.910996 2.503443 1.139039 
22.349750 2.107731 1.139039 
25.710677 1.692089 1.139039 
28.852071 1.322026 1.139039 
31.684764 1.017097 1.139039 
34.132722 0.785368 1.139039 
36.142897 0.629993 1.139039 
37.754173 0.534492 1.139039 
39.028420 0.477472 1.139039 
39.716635 0.451230 1.139039 
40.273301 0.431984 1.139039 
40.689163 0.419135 1.139039 
40.841400 0.414921 1.139039 
40.954965 0.412083 1.139039 
41.028701 0.410543 1.139039 
0.198991 0.899437 1.139039 
0.274161 1.160556 1.139039 
0.389221 1.437476 1.139039 
0.543001 1.727021 1.139039 
0.962037 2.331288 1.139039 
1.521897 2.947953 1.139039 
2.213214 3.551615 1.139039 
3.491756 4.383146 1.139039 
5.106863 5.078440 1.139039 
7.120405 5.587672 1.139039 
9.571250 5.865041 1.139039 
12.406250 5.880848 1.139039 
15.549254 5.609418 1.139039 
18.910996 5.051940 1.139039 
22.349750 4.317065 1.139039 
25.710677 3.540309 1.139039 
28.852071 2.838003 1.139039 